 argument  1 = ethanol.nw



============================== echo of input deck ==============================
start

title "ethanol"

echo
geometry ethanol
   O       1.4277    -0.5650    -0.3289
   C       0.4703     0.4443    -0.1587
   C      -0.9137    -0.1644     0.0308
   H       1.6014    -0.9462     0.5713
   H       0.4633     1.0865    -1.0645
   H       0.7274     1.0839     0.7160
   H      -0.9322    -0.7928     0.9464
   H      -1.6672     0.6445     0.1353
   H      -1.1770    -0.7909    -0.8477
end

basis spherical
* library 6-311G
end

dft
direct
xc pbe0
noprint "final vectors analysis" multipole
end

set geometry ethanol
task dft optimize
property
  shielding
end
task dft property
================================================================================


                                         
                                         


             Northwest Computational Chemistry Package (NWChem) 7.0.2
             --------------------------------------------------------


                    Environmental Molecular Sciences Laboratory
                       Pacific Northwest National Laboratory
                                Richland, WA 99352

                              Copyright (c) 1994-2020
                       Pacific Northwest National Laboratory
                            Battelle Memorial Institute

             NWChem is an open-source computational chemistry package
                        distributed under the terms of the
                      Educational Community License (ECL) 2.0
             A copy of the license is included with this distribution
                              in the LICENSE.TXT file

                                  ACKNOWLEDGMENT
                                  --------------

            This software and its documentation were developed at the
            EMSL at Pacific Northwest National Laboratory, a multiprogram
            national laboratory, operated for the U.S. Department of Energy
            by Battelle under Contract Number DE-AC05-76RL01830. Support
            for this work was provided by the Department of Energy Office
            of Biological and Environmental Research, Office of Basic
            Energy Sciences, and the Office of Advanced Scientific Computing.


           Job information
           ---------------

    hostname        = caffeine5-ThinkPad-E590
    program         = nwchem
    date            = Thu Jun 29 12:55:58 2023

    compiled        = Sat_Apr_09_17:12:10_2022
    source          = /build/nwchem-f1f4gx/nwchem-7.0.2/build-openmpi
    nwchem branch   = 7.0.2
    nwchem revision = N/A
    ga revision     = 5.8.1
    use scalapack   = T
    input           = ethanol.nw
    prefix          = ethanol.
    data base       = ./ethanol.db
    status          = startup
    nproc           =        1
    time left       =     -1s



           Memory information
           ------------------

    heap     =   13107194 doubles =    100.0 Mbytes
    stack    =   13107199 doubles =    100.0 Mbytes
    global   =   26214400 doubles =    200.0 Mbytes (distinct from heap & stack)
    total    =   52428793 doubles =    400.0 Mbytes
    verify   = yes
    hardfail = no 


           Directory information
           ---------------------

  0 permanent = .
  0 scratch   = .




                                NWChem Input Module
                                -------------------


                                      ethanol
                                      -------

 Scaling coordinates for geometry "ethanol" by  1.889725989
 (inverse scale =  0.529177249)

 C1  symmetry detected

          ------
          auto-z
          ------
  no constraints, skipping    0.0000000000000000     
  no constraints, skipping    0.0000000000000000     


                             Geometry "ethanol" -> ""
                             ------------------------

 Output coordinates in angstroms (scale by  1.889725989 to convert to a.u.)

  No.       Tag          Charge          X              Y              Z
 ---- ---------------- ---------- -------------- -------------- --------------
    1 O                    8.0000    -0.26579499    -1.20827319    -0.08664088
    2 C                    6.0000     0.56460489    -0.08327084     0.00862228
    3 C                    6.0000    -0.26645908     1.19345710    -0.02573436
    4 H                    1.0000    -0.68355229    -1.32912357     0.80595040
    5 H                    1.0000     1.26591902    -0.08296383    -0.85225045
    6 H                    1.0000     1.16696667    -0.11979854     0.94463225
    7 H                    1.0000    -0.95894416     1.22160366     0.84215063
    8 H                    1.0000     0.40369696     2.07760388     0.02092454
    9 H                    1.0000    -0.85660114     1.23774633    -0.96560786

      Atomic Mass 
      ----------- 

      O                 15.994910
      C                 12.000000
      H                  1.007825


 Effective nuclear repulsion energy (a.u.)      81.7271170316

            Nuclear Dipole moment (a.u.) 
            ----------------------------
        X                 Y               Z
 ---------------- ---------------- ----------------
     0.0000000000     0.0000000000     0.0000000000



                                Z-matrix (autoz)
                                -------- 

 Units are Angstrom for bonds and degrees for angles

      Type          Name      I     J     K     L     M      Value
      ----------- --------  ----- ----- ----- ----- ----- ----------
    1 Stretch                  1     2                       1.40152
    2 Stretch                  1     4                       0.99290
    3 Stretch                  2     3                       1.52377
    4 Stretch                  2     5                       1.11038
    5 Stretch                  2     6                       1.11368
    6 Stretch                  3     7                       1.11065
    7 Stretch                  3     8                       1.11041
    8 Stretch                  3     9                       1.11067
    9 Bend                     1     2     3               110.35770
   10 Bend                     1     2     5               108.76848
   11 Bend                     1     2     6               110.56478
   12 Bend                     2     1     4               106.61187
   13 Bend                     2     3     7               110.10048
   14 Bend                     2     3     8               109.69648
   15 Bend                     2     3     9               110.01598
   16 Bend                     3     2     5               109.07229
   17 Bend                     3     2     6               109.96363
   18 Bend                     5     2     6               108.05935
   19 Bend                     7     3     8               108.86136
   20 Bend                     7     3     9               109.20543
   21 Bend                     8     3     9               108.93420
   22 Torsion                  1     2     3     7          61.83935
   23 Torsion                  1     2     3     8        -178.38228
   24 Torsion                  1     2     3     9         -58.56664
   25 Torsion                  3     2     1     4         -76.70007
   26 Torsion                  4     1     2     5         163.68331
   27 Torsion                  4     1     2     6          45.18159
   28 Torsion                  5     2     3     7        -178.72792
   29 Torsion                  5     2     3     8         -58.94955
   30 Torsion                  5     2     3     9          60.86610
   31 Torsion                  6     2     3     7         -60.39669
   32 Torsion                  6     2     3     8          59.38168
   33 Torsion                  6     2     3     9         179.19732


            XYZ format geometry
            -------------------
     9
 ethanol
 O                    -0.26579499    -1.20827319    -0.08664088
 C                     0.56460489    -0.08327084     0.00862228
 C                    -0.26645908     1.19345710    -0.02573436
 H                    -0.68355229    -1.32912357     0.80595040
 H                     1.26591902    -0.08296383    -0.85225045
 H                     1.16696667    -0.11979854     0.94463225
 H                    -0.95894416     1.22160366     0.84215063
 H                     0.40369696     2.07760388     0.02092454
 H                    -0.85660114     1.23774633    -0.96560786

 ==============================================================================
                                internuclear distances
 ------------------------------------------------------------------------------
       center one      |      center two      | atomic units |  angstroms
 ------------------------------------------------------------------------------
    2 C                |   1 O                |     2.64850  |     1.40152
    3 C                |   2 C                |     2.87951  |     1.52377
    4 H                |   1 O                |     1.87630  |     0.99290
    5 H                |   2 C                |     2.09831  |     1.11038
    6 H                |   2 C                |     2.10455  |     1.11368
    7 H                |   3 C                |     2.09883  |     1.11065
    8 H                |   3 C                |     2.09836  |     1.11041
    9 H                |   3 C                |     2.09886  |     1.11067
 ------------------------------------------------------------------------------
                         number of included internuclear distances:          8
 ==============================================================================



 ==============================================================================
                                 internuclear angles
 ------------------------------------------------------------------------------
        center 1       |       center 2       |       center 3       |  degrees
 ------------------------------------------------------------------------------
    2 C                |   1 O                |   4 H                |   106.61
    1 O                |   2 C                |   3 C                |   110.36
    1 O                |   2 C                |   5 H                |   108.77
    1 O                |   2 C                |   6 H                |   110.56
    3 C                |   2 C                |   5 H                |   109.07
    3 C                |   2 C                |   6 H                |   109.96
    5 H                |   2 C                |   6 H                |   108.06
    2 C                |   3 C                |   7 H                |   110.10
    2 C                |   3 C                |   8 H                |   109.70
    2 C                |   3 C                |   9 H                |   110.02
    7 H                |   3 C                |   8 H                |   108.86
    7 H                |   3 C                |   9 H                |   109.21
    8 H                |   3 C                |   9 H                |   108.93
 ------------------------------------------------------------------------------
                            number of included internuclear angles:         13
 ==============================================================================





 Summary of "ao basis" -> "" (spherical)
 ------------------------------------------------------------------------------
       Tag                 Description            Shells   Functions and Types
 ---------------- ------------------------------  ------  ---------------------
 *                           6-311G                   on all atoms 




                           NWChem Geometry Optimization
                           ----------------------------




                                      ethanol


  no constraints, skipping    0.0000000000000000     
 maximum gradient threshold         (gmax) =   0.000450
 rms gradient threshold             (grms) =   0.000300
 maximum cartesian step threshold   (xmax) =   0.001800
 rms cartesian step threshold       (xrms) =   0.001200
 fixed trust radius                (trust) =   0.300000
 maximum step size to saddle      (sadstp) =   0.100000
 energy precision                  (eprec) =   5.0D-06
 maximum number of steps          (nptopt) =   20
 initial hessian option           (inhess) =    0
 line search option               (linopt) =    1
 hessian update option            (modupd) =    1
 saddle point option              (modsad) =    0
 initial eigen-mode to follow     (moddir) =    0
 initial variable to follow       (vardir) =    0
 follow first negative mode     (firstneg) =    T
 apply conjugacy                    (opcg) =    F
 source of zmatrix                         =   autoz   


          -------------------
          Energy Minimization
          -------------------


 Names of Z-matrix variables 
    1              2              3              4              5         
    6              7              8              9             10         
   11             12             13             14             15         
   16             17             18             19             20         
   21             22             23             24             25         
   26             27             28             29             30         
   31             32             33         

 Variables with the same non-blank name are constrained to be equal


 Using diagonal initial Hessian 
 Scaling for Hessian diagonals: bonds = 1.00  angles = 0.25  torsions = 0.10

          --------
          Step   0
          --------


                         Geometry "geometry" -> "ethanol"
                         --------------------------------

 Output coordinates in angstroms (scale by  1.889725989 to convert to a.u.)

  No.       Tag          Charge          X              Y              Z
 ---- ---------------- ---------- -------------- -------------- --------------
    1 O                    8.0000    -0.26579499    -1.20827319    -0.08664088
    2 C                    6.0000     0.56460489    -0.08327084     0.00862228
    3 C                    6.0000    -0.26645908     1.19345710    -0.02573436
    4 H                    1.0000    -0.68355229    -1.32912357     0.80595040
    5 H                    1.0000     1.26591902    -0.08296383    -0.85225045
    6 H                    1.0000     1.16696667    -0.11979854     0.94463225
    7 H                    1.0000    -0.95894416     1.22160366     0.84215063
    8 H                    1.0000     0.40369696     2.07760388     0.02092454
    9 H                    1.0000    -0.85660114     1.23774633    -0.96560786

      Atomic Mass 
      ----------- 

      O                 15.994910
      C                 12.000000
      H                  1.007825


 Effective nuclear repulsion energy (a.u.)      81.7271170316

            Nuclear Dipole moment (a.u.) 
            ----------------------------
        X                 Y               Z
 ---------------- ---------------- ----------------
     0.0000000000     0.0000000000     0.0000000000


                                 NWChem DFT Module
                                 -----------------


                                      ethanol


                      Basis "ao basis" -> "ao basis" (spherical)
                      -----
  O (Oxygen)
  ----------
            Exponent  Coefficients 
       -------------- ---------------------------------------------------------
  1 S  8.58850000E+03  0.001895
  1 S  1.29723000E+03  0.014386
  1 S  2.99296000E+02  0.070732
  1 S  8.73771000E+01  0.240001
  1 S  2.56789000E+01  0.594797
  1 S  3.74004000E+00  0.280802

  2 S  4.21175000E+01  0.113889
  2 S  9.62837000E+00  0.920811
  2 S  2.85332000E+00 -0.003274

  3 P  4.21175000E+01  0.036511
  3 P  9.62837000E+00  0.237153
  3 P  2.85332000E+00  0.819702

  4 S  9.05661000E-01  1.000000

  5 P  9.05661000E-01  1.000000

  6 S  2.55611000E-01  1.000000

  7 P  2.55611000E-01  1.000000

  C (Carbon)
  ----------
            Exponent  Coefficients 
       -------------- ---------------------------------------------------------
  1 S  4.56324000E+03  0.001967
  1 S  6.82024000E+02  0.015231
  1 S  1.54973000E+02  0.076127
  1 S  4.44553000E+01  0.260801
  1 S  1.30290000E+01  0.616462
  1 S  1.82773000E+00  0.221006

  2 S  2.09642000E+01  0.114660
  2 S  4.80331000E+00  0.919999
  2 S  1.45933000E+00 -0.003031

  3 P  2.09642000E+01  0.040249
  3 P  4.80331000E+00  0.237594
  3 P  1.45933000E+00  0.815854

  4 S  4.83456000E-01  1.000000

  5 P  4.83456000E-01  1.000000

  6 S  1.45585000E-01  1.000000

  7 P  1.45585000E-01  1.000000

  H (Hydrogen)
  ------------
            Exponent  Coefficients 
       -------------- ---------------------------------------------------------
  1 S  3.38650000E+01  0.025494
  1 S  5.09479000E+00  0.190373
  1 S  1.15879000E+00  0.852161

  2 S  3.25840000E-01  1.000000

  3 S  1.02741000E-01  1.000000



 Summary of "ao basis" -> "ao basis" (spherical)
 ------------------------------------------------------------------------------
       Tag                 Description            Shells   Functions and Types
 ---------------- ------------------------------  ------  ---------------------
 O                           6-311G                  7       13   4s3p
 C                           6-311G                  7       13   4s3p
 H                           6-311G                  3        3   3s




 Summary of "ao basis" -> "ao basis" (spherical)
 ------------------------------------------------------------------------------
       Tag                 Description            Shells   Functions and Types
 ---------------- ------------------------------  ------  ---------------------
 O                           6-311G                  7       13   4s3p
 C                           6-311G                  7       13   4s3p
 H                           6-311G                  3        3   3s


  Caching 1-el integrals 

            General Information
            -------------------
          SCF calculation type: DFT
          Wavefunction type:  closed shell.
          No. of atoms     :     9
          No. of electrons :    26
           Alpha electrons :    13
            Beta electrons :    13
          Charge           :     0
          Spin multiplicity:     1
          Use of symmetry is: off; symmetry adaption is: off
          Maximum number of iterations:  30
          This is a Direct SCF calculation.
          AO basis - number of functions:    57
                     number of shells:    39
          Convergence on energy requested:  1.00D-06
          Convergence on density requested:  1.00D-05
          Convergence on gradient requested:  5.00D-04

              XC Information
              --------------
                         PBE0 Method XC Functional
                     Hartree-Fock (Exact) Exchange  0.250          
          PerdewBurkeErnzerhof Exchange Functional  0.750          
            Perdew 1991 LDA Correlation Functional  1.000 local    
           PerdewBurkeErnz. Correlation Functional  1.000 non-local

             Grid Information
             ----------------
          Grid used for XC integration:  medium    
          Radial quadrature: Mura-Knowles        
          Angular quadrature: Lebedev. 
          Tag              B.-S. Rad. Rad. Pts. Rad. Cut. Ang. Pts.
          ---              ---------- --------- --------- ---------
          O                   0.60       49          10.0       434
          C                   0.70       49           9.0       434
          H                   0.35       45          11.0       434
          Grid pruning is: on 
          Number of quadrature shells:   417
          Spatial weights used:  Erf1

          Convergence Information
          -----------------------
          Convergence aids based upon iterative change in 
          total energy or number of iterations. 
          Levelshifting, if invoked, occurs when the 
          HOMO/LUMO gap drops below (HL_TOL):  1.00D-02
          DIIS, if invoked, will attempt to extrapolate 
          using up to (NFOCK): 10 stored Fock matrices.

                    Damping( 0%)  Levelshifting(0.5)       DIIS
                  --------------- ------------------- ---------------
          dE  on:    start            ASAP                start   
          dE off:    2 iters         30 iters            30 iters 


      Screening Tolerance Information
      -------------------------------
          Density screening/tol_rho:  1.00D-10
          AO Gaussian exp screening on grid/accAOfunc:  14
          CD Gaussian exp screening on grid/accCDfunc:  20
          XC Gaussian exp screening on grid/accXCfunc:  20
          Schwarz screening/accCoul:  1.00D-08


      Superposition of Atomic Density Guess
      -------------------------------------

 Sum of atomic energies:        -153.11208536

      Non-variational initial energy
      ------------------------------

 Total energy =    -154.733337
 1-e energy   =    -368.487747
 2-e energy   =     132.027293
 HOMO         =      -0.361584
 LUMO         =       0.074315

   Time after variat. SCF:      0.3
   Time prior to 1st pass:      0.3

 Grid_pts file          = ./ethanol.gridpts.0
 Record size in doubles =  12289        No. of grid_pts per rec  =   3070
 Max. records in memory =     66        Max. recs in file   =   4199286


           Memory utilization after 1st SCF pass: 
           Heap Space remaining (MW):       12.29            12293338
          Stack Space remaining (MW):       13.11            13106628

   convergence    iter        energy       DeltaE   RMS-Dens  Diis-err    time
 ---------------- ----- ----------------- --------- --------- ---------  ------
 d= 0,ls=0.0,diis     1   -154.7874857971 -2.37D+02  1.51D-02  5.09D-01     1.5
 d= 0,ls=0.0,diis     2   -154.7907314488 -3.25D-03  8.67D-03  5.51D-01     2.5
 d= 0,ls=0.0,diis     3   -154.8386299553 -4.79D-02  1.46D-03  3.52D-02     3.6
 d= 0,ls=0.0,diis     4   -154.8413220732 -2.69D-03  3.55D-04  1.00D-03     4.7
 d= 0,ls=0.0,diis     5   -154.8414310450 -1.09D-04  1.06D-04  8.80D-05     5.8
  Resetting Diis
 d= 0,ls=0.0,diis     6   -154.8414413838 -1.03D-05  1.56D-05  4.94D-07     6.9
 d= 0,ls=0.0,diis     7   -154.8414414686 -8.48D-08  4.34D-06  3.24D-08     8.1


         Total DFT energy =     -154.841441468609
      One electron energy =     -371.513777420969
           Coulomb energy =      156.428301734528
    Exchange-Corr. energy =      -21.483082813754
 Nuclear repulsion energy =       81.727117031586

 Numeric. integr. density =       26.000000699949

     Total iterative time =      7.8s



 center of mass
 --------------
 x =  -0.01368770 y =  -0.12212141 z =  -0.03238883

 moments of inertia (a.u.)
 ------------------
         191.375530921887           0.000000000000           0.000000000000
           0.000000000000          54.102189803159           0.000000000000
           0.000000000000           0.000000000000         216.507454842141

            General Information
            -------------------
          SCF calculation type: DFT
          Wavefunction type:  closed shell.
          No. of atoms     :     9
          No. of electrons :    26
           Alpha electrons :    13
            Beta electrons :    13
          Charge           :     0
          Spin multiplicity:     1
          Use of symmetry is: off; symmetry adaption is: off
          Maximum number of iterations:  30
          This is a Direct SCF calculation.
          AO basis - number of functions:    57
                     number of shells:    39
          Convergence on energy requested:  1.00D-06
          Convergence on density requested:  1.00D-05
          Convergence on gradient requested:  5.00D-04

              XC Information
              --------------
                         PBE0 Method XC Functional
                     Hartree-Fock (Exact) Exchange  0.250          
          PerdewBurkeErnzerhof Exchange Functional  0.750          
            Perdew 1991 LDA Correlation Functional  1.000 local    
           PerdewBurkeErnz. Correlation Functional  1.000 non-local

             Grid Information
             ----------------
          Grid used for XC integration:  medium    
          Radial quadrature: Mura-Knowles        
          Angular quadrature: Lebedev. 
          Tag              B.-S. Rad. Rad. Pts. Rad. Cut. Ang. Pts.
          ---              ---------- --------- --------- ---------
          O                   0.60       49          10.0       434
          C                   0.70       49           9.0       434
          H                   0.35       45          11.0       434
          Grid pruning is: on 
          Number of quadrature shells:   417
          Spatial weights used:  Erf1

          Convergence Information
          -----------------------
          Convergence aids based upon iterative change in 
          total energy or number of iterations. 
          Levelshifting, if invoked, occurs when the 
          HOMO/LUMO gap drops below (HL_TOL):  1.00D-02
          DIIS, if invoked, will attempt to extrapolate 
          using up to (NFOCK): 10 stored Fock matrices.

                    Damping( 0%)  Levelshifting(0.5)       DIIS
                  --------------- ------------------- ---------------
          dE  on:    start            ASAP                start   
          dE off:    2 iters         30 iters            30 iters 


      Screening Tolerance Information
      -------------------------------
          Density screening/tol_rho:  1.00D-10
          AO Gaussian exp screening on grid/accAOfunc:  14
          CD Gaussian exp screening on grid/accCDfunc:  20
          XC Gaussian exp screening on grid/accXCfunc:  20
          Schwarz screening/accCoul:  1.00D-08



                            NWChem DFT Gradient Module
                            --------------------------


                                      ethanol



  charge          =   0.00
  wavefunction    = closed shell



                         DFT ENERGY GRADIENTS

    atom               coordinates                        gradient
                 x          y          z           x          y          z
   1 O      -0.502280  -2.283305  -0.163728    0.020333   0.027455  -0.020055
   2 C       1.066949  -0.157359   0.016294   -0.022851  -0.029035   0.001418
   3 C      -0.503535   2.255307  -0.048631   -0.002153  -0.007914   0.000075
   4 H      -1.291727  -2.511679   1.523025   -0.003380   0.002907   0.021248
   5 H       2.392240  -0.156779  -1.610520    0.008217   0.004186  -0.009876
   6 H       2.205247  -0.226386   1.785096    0.002091  -0.002056   0.009524
   7 H      -1.812142   2.308496   1.591434   -0.005694  -0.001925   0.009345
   8 H       0.762877   3.926102   0.039542    0.009217   0.006086   0.000053
   9 H      -1.618741   2.339001  -1.824734   -0.005779   0.000297  -0.011733

                 ----------------------------------------
                 |  Time  |  1-e(secs)   |  2-e(secs)   |
                 ----------------------------------------
                 |  CPU   |       0.03   |       0.90   |
                 ----------------------------------------
                 |  WALL  |       0.01   |       0.80   |
                 ----------------------------------------
  no constraints, skipping    0.0000000000000000     

@ Step       Energy      Delta E   Gmax     Grms     Xrms     Xmax   Walltime
@ ---- ---------------- -------- -------- -------- -------- -------- --------
@    0    -154.84144147  0.0D+00  0.03450  0.00847  0.00000  0.00000     10.0
                                                                    



                                Z-matrix (autoz)
                                -------- 

 Units are Angstrom for bonds and degrees for angles

      Type          Name      I     J     K     L     M      Value     Gradient
      ----------- --------  ----- ----- ----- ----- ----- ---------- ----------
    1 Stretch                  1     2                       1.40152   -0.03450
    2 Stretch                  1     4                       0.99290    0.02017
    3 Stretch                  2     3                       1.52377   -0.00044
    4 Stretch                  2     5                       1.11038    0.01285
    5 Stretch                  2     6                       1.11368    0.00920
    6 Stretch                  3     7                       1.11065    0.01080
    7 Stretch                  3     8                       1.11041    0.01041
    8 Stretch                  3     9                       1.11067    0.01301
    9 Bend                     1     2     3               110.35770   -0.00483
   10 Bend                     1     2     5               108.76848    0.00374
   11 Bend                     1     2     6               110.56478    0.00006
   12 Bend                     2     1     4               106.61187   -0.00781
   13 Bend                     2     3     7               110.10048   -0.00139
   14 Bend                     2     3     8               109.69648   -0.00263
   15 Bend                     2     3     9               110.01598    0.00015
   16 Bend                     3     2     5               109.07229   -0.00101
   17 Bend                     3     2     6               109.96363    0.00176
   18 Bend                     5     2     6               108.05935    0.00041
   19 Bend                     7     3     8               108.86136    0.00181
   20 Bend                     7     3     9               109.20543    0.00112
   21 Bend                     8     3     9               108.93420    0.00100
   22 Torsion                  1     2     3     7          61.83935   -0.00074
   23 Torsion                  1     2     3     8        -178.38228   -0.00103
   24 Torsion                  1     2     3     9         -58.56664   -0.00134
   25 Torsion                  3     2     1     4         -76.70007   -0.00079
   26 Torsion                  4     1     2     5         163.68331    0.00104
   27 Torsion                  4     1     2     6          45.18159   -0.00178
   28 Torsion                  5     2     3     7        -178.72792    0.00028
   29 Torsion                  5     2     3     8         -58.94955    0.00000
   30 Torsion                  5     2     3     9          60.86610   -0.00031
   31 Torsion                  6     2     3     7         -60.39669    0.00121
   32 Torsion                  6     2     3     8          59.38168    0.00093
   33 Torsion                  6     2     3     9         179.19732    0.00062

  no constraints, skipping    0.0000000000000000     
  no constraints, skipping    0.0000000000000000     
  no constraints, skipping    0.0000000000000000     
  no constraints, skipping    0.0000000000000000     
  no constraints, skipping    0.0000000000000000     
  no constraints, skipping    0.0000000000000000     
  no constraints, skipping    0.0000000000000000     
  no constraints, skipping    0.0000000000000000     

                                 NWChem DFT Module
                                 -----------------


                                      ethanol




 Summary of "ao basis" -> "ao basis" (spherical)
 ------------------------------------------------------------------------------
       Tag                 Description            Shells   Functions and Types
 ---------------- ------------------------------  ------  ---------------------
 O                           6-311G                  7       13   4s3p
 C                           6-311G                  7       13   4s3p
 H                           6-311G                  3        3   3s


  Caching 1-el integrals 

            General Information
            -------------------
          SCF calculation type: DFT
          Wavefunction type:  closed shell.
          No. of atoms     :     9
          No. of electrons :    26
           Alpha electrons :    13
            Beta electrons :    13
          Charge           :     0
          Spin multiplicity:     1
          Use of symmetry is: off; symmetry adaption is: off
          Maximum number of iterations:  30
          This is a Direct SCF calculation.
          AO basis - number of functions:    57
                     number of shells:    39
          Convergence on energy requested:  1.00D-06
          Convergence on density requested:  1.00D-05
          Convergence on gradient requested:  5.00D-04

              XC Information
              --------------
                         PBE0 Method XC Functional
                     Hartree-Fock (Exact) Exchange  0.250          
          PerdewBurkeErnzerhof Exchange Functional  0.750          
            Perdew 1991 LDA Correlation Functional  1.000 local    
           PerdewBurkeErnz. Correlation Functional  1.000 non-local

             Grid Information
             ----------------
          Grid used for XC integration:  medium    
          Radial quadrature: Mura-Knowles        
          Angular quadrature: Lebedev. 
          Tag              B.-S. Rad. Rad. Pts. Rad. Cut. Ang. Pts.
          ---              ---------- --------- --------- ---------
          O                   0.60       49          10.0       434
          C                   0.70       49           9.0       434
          H                   0.35       45          11.0       434
          Grid pruning is: on 
          Number of quadrature shells:   417
          Spatial weights used:  Erf1

          Convergence Information
          -----------------------
          Convergence aids based upon iterative change in 
          total energy or number of iterations. 
          Levelshifting, if invoked, occurs when the 
          HOMO/LUMO gap drops below (HL_TOL):  1.00D-02
          DIIS, if invoked, will attempt to extrapolate 
          using up to (NFOCK): 10 stored Fock matrices.

                    Damping( 0%)  Levelshifting(0.5)       DIIS
                  --------------- ------------------- ---------------
          dE  on:    start            ASAP                start   
          dE off:    2 iters         30 iters            30 iters 


      Screening Tolerance Information
      -------------------------------
          Density screening/tol_rho:  1.00D-10
          AO Gaussian exp screening on grid/accAOfunc:  14
          CD Gaussian exp screening on grid/accCDfunc:  20
          XC Gaussian exp screening on grid/accXCfunc:  20
          Schwarz screening/accCoul:  1.00D-08


 Loading old vectors from job with title :

ethanol

   Time after variat. SCF:     10.0
   Time prior to 1st pass:     10.0

 Grid_pts file          = ./ethanol.gridpts.0
 Record size in doubles =  12289        No. of grid_pts per rec  =   3070
 Max. records in memory =     66        Max. recs in file   =   4199286


           Memory utilization after 1st SCF pass: 
           Heap Space remaining (MW):       12.29            12293338
          Stack Space remaining (MW):       13.11            13106628

   convergence    iter        energy       DeltaE   RMS-Dens  Diis-err    time
 ---------------- ----- ----------------- --------- --------- ---------  ------
 d= 0,ls=0.0,diis     1   -154.8426756721 -2.36D+02  2.22D-03  1.64D-02    11.4
 d= 0,ls=0.0,diis     2   -154.8450746137 -2.40D-03  5.41D-04  1.00D-03    12.6
 d= 0,ls=0.0,diis     3   -154.8451000738 -2.55D-05  2.58D-04  8.85D-04    13.9
 d= 0,ls=0.0,diis     4   -154.8452065986 -1.07D-04  2.34D-05  1.90D-06    15.1
 d= 0,ls=0.0,diis     5   -154.8452067276 -1.29D-07  1.06D-05  1.07D-06    16.3
 d= 0,ls=0.0,diis     6   -154.8452068203 -9.27D-08  3.04D-06  5.75D-08    17.6


         Total DFT energy =     -154.845206820301
      One electron energy =     -369.996550481714
           Coulomb energy =      155.707111093313
    Exchange-Corr. energy =      -21.504093466416
 Nuclear repulsion energy =       80.948326034516

 Numeric. integr. density =       26.000005292250

     Total iterative time =      7.6s



 center of mass
 --------------
 x =  -0.00716013 y =  -0.13559092 z =  -0.01520933

 moments of inertia (a.u.)
 ------------------
         202.297097008834          -1.448333027283          -0.057928309558
          -1.448333027283          52.325762045293           0.921597850582
          -0.057928309558           0.921597850582         227.251296889710
 Line search: 
     step= 1.00 grad=-8.7D-03 hess= 4.9D-03 energy=   -154.845207 mode=downhill
 new step= 0.88                   predicted energy=   -154.845277
  no constraints, skipping    0.0000000000000000     
  no constraints, skipping    0.0000000000000000     
  no constraints, skipping    0.0000000000000000     
  no constraints, skipping    0.0000000000000000     
  no constraints, skipping    0.0000000000000000     
  no constraints, skipping    0.0000000000000000     
  no constraints, skipping    0.0000000000000000     
  no constraints, skipping    0.0000000000000000     

          --------
          Step   1
          --------


                         Geometry "geometry" -> "ethanol"
                         --------------------------------

 Output coordinates in angstroms (scale by  1.889725989 to convert to a.u.)

  No.       Tag          Charge          X              Y              Z
 ---- ---------------- ---------- -------------- -------------- --------------
    1 O                    8.0000    -0.26106936    -1.25379991    -0.06966715
    2 C                    6.0000     0.56090740    -0.07008540     0.01758787
    3 C                    6.0000    -0.25622179     1.21603559    -0.02437523
    4 H                    1.0000    -0.69922989    -1.42396654     0.77319756
    5 H                    1.0000     1.24592487    -0.09778500    -0.83289303
    6 H                    1.0000     1.16934160    -0.08406476     0.93475274
    7 H                    1.0000    -0.93651821     1.27231192     0.83248336
    8 H                    1.0000     0.39529865     2.09674362     0.00254492
    9 H                    1.0000    -0.84859740     1.25159149    -0.94158449

      Atomic Mass 
      ----------- 

      O                 15.994910
      C                 12.000000
      H                  1.007825


 Effective nuclear repulsion energy (a.u.)      81.0361390678

            Nuclear Dipole moment (a.u.) 
            ----------------------------
        X                 Y               Z
 ---------------- ---------------- ----------------
     0.1243032999    -0.2643110681     0.3220842820


                                 NWChem DFT Module
                                 -----------------


                                      ethanol




 Summary of "ao basis" -> "ao basis" (spherical)
 ------------------------------------------------------------------------------
       Tag                 Description            Shells   Functions and Types
 ---------------- ------------------------------  ------  ---------------------
 O                           6-311G                  7       13   4s3p
 C                           6-311G                  7       13   4s3p
 H                           6-311G                  3        3   3s


  Caching 1-el integrals 

            General Information
            -------------------
          SCF calculation type: DFT
          Wavefunction type:  closed shell.
          No. of atoms     :     9
          No. of electrons :    26
           Alpha electrons :    13
            Beta electrons :    13
          Charge           :     0
          Spin multiplicity:     1
          Use of symmetry is: off; symmetry adaption is: off
          Maximum number of iterations:  30
          This is a Direct SCF calculation.
          AO basis - number of functions:    57
                     number of shells:    39
          Convergence on energy requested:  1.00D-06
          Convergence on density requested:  1.00D-05
          Convergence on gradient requested:  5.00D-04

              XC Information
              --------------
                         PBE0 Method XC Functional
                     Hartree-Fock (Exact) Exchange  0.250          
          PerdewBurkeErnzerhof Exchange Functional  0.750          
            Perdew 1991 LDA Correlation Functional  1.000 local    
           PerdewBurkeErnz. Correlation Functional  1.000 non-local

             Grid Information
             ----------------
          Grid used for XC integration:  medium    
          Radial quadrature: Mura-Knowles        
          Angular quadrature: Lebedev. 
          Tag              B.-S. Rad. Rad. Pts. Rad. Cut. Ang. Pts.
          ---              ---------- --------- --------- ---------
          O                   0.60       49          10.0       434
          C                   0.70       49           9.0       434
          H                   0.35       45          11.0       434
          Grid pruning is: on 
          Number of quadrature shells:   417
          Spatial weights used:  Erf1

          Convergence Information
          -----------------------
          Convergence aids based upon iterative change in 
          total energy or number of iterations. 
          Levelshifting, if invoked, occurs when the 
          HOMO/LUMO gap drops below (HL_TOL):  1.00D-02
          DIIS, if invoked, will attempt to extrapolate 
          using up to (NFOCK): 10 stored Fock matrices.

                    Damping( 0%)  Levelshifting(0.5)       DIIS
                  --------------- ------------------- ---------------
          dE  on:    start            ASAP                start   
          dE off:    2 iters         30 iters            30 iters 


      Screening Tolerance Information
      -------------------------------
          Density screening/tol_rho:  1.00D-10
          AO Gaussian exp screening on grid/accAOfunc:  14
          CD Gaussian exp screening on grid/accCDfunc:  20
          XC Gaussian exp screening on grid/accXCfunc:  20
          Schwarz screening/accCoul:  1.00D-08


 Loading old vectors from job with title :

ethanol

   Time after variat. SCF:     17.6
   Time prior to 1st pass:     17.6

 Grid_pts file          = ./ethanol.gridpts.0
 Record size in doubles =  12289        No. of grid_pts per rec  =   3070
 Max. records in memory =     66        Max. recs in file   =   4199256


           Memory utilization after 1st SCF pass: 
           Heap Space remaining (MW):       12.29            12293338
          Stack Space remaining (MW):       13.11            13106628

   convergence    iter        energy       DeltaE   RMS-Dens  Diis-err    time
 ---------------- ----- ----------------- --------- --------- ---------  ------
 d= 0,ls=0.0,diis     1   -154.8452291497 -2.36D+02  2.59D-04  2.29D-04    19.1
 d= 0,ls=0.0,diis     2   -154.8452624156 -3.33D-05  6.74D-05  1.54D-05    20.4
 d= 0,ls=0.0,diis     3   -154.8452628043 -3.89D-07  3.21D-05  1.37D-05    21.6
 d= 0,ls=0.0,diis     4   -154.8452644216 -1.62D-06  3.39D-06  4.74D-08    22.9
 d= 0,ls=0.0,diis     5   -154.8452644231 -1.47D-09  1.78D-06  3.57D-08    24.2


         Total DFT energy =     -154.845264423065
      One electron energy =     -370.169184635007
           Coulomb energy =      155.789113043628
    Exchange-Corr. energy =      -21.501331899515
 Nuclear repulsion energy =       81.036139067829

 Numeric. integr. density =       26.000004504246

     Total iterative time =      6.5s



 center of mass
 --------------
 x =  -0.00783036 y =  -0.13399080 z =  -0.01728979

 moments of inertia (a.u.)
 ------------------
         200.967633222166          -1.275217558491          -0.049764358726
          -1.275217558491          52.544194037884           0.802820070449
          -0.049764358726           0.802820070449         225.951442165085

            General Information
            -------------------
          SCF calculation type: DFT
          Wavefunction type:  closed shell.
          No. of atoms     :     9
          No. of electrons :    26
           Alpha electrons :    13
            Beta electrons :    13
          Charge           :     0
          Spin multiplicity:     1
          Use of symmetry is: off; symmetry adaption is: off
          Maximum number of iterations:  30
          This is a Direct SCF calculation.
          AO basis - number of functions:    57
                     number of shells:    39
          Convergence on energy requested:  1.00D-06
          Convergence on density requested:  1.00D-05
          Convergence on gradient requested:  5.00D-04

              XC Information
              --------------
                         PBE0 Method XC Functional
                     Hartree-Fock (Exact) Exchange  0.250          
          PerdewBurkeErnzerhof Exchange Functional  0.750          
            Perdew 1991 LDA Correlation Functional  1.000 local    
           PerdewBurkeErnz. Correlation Functional  1.000 non-local

             Grid Information
             ----------------
          Grid used for XC integration:  medium    
          Radial quadrature: Mura-Knowles        
          Angular quadrature: Lebedev. 
          Tag              B.-S. Rad. Rad. Pts. Rad. Cut. Ang. Pts.
          ---              ---------- --------- --------- ---------
          O                   0.60       49          10.0       434
          C                   0.70       49           9.0       434
          H                   0.35       45          11.0       434
          Grid pruning is: on 
          Number of quadrature shells:   417
          Spatial weights used:  Erf1

          Convergence Information
          -----------------------
          Convergence aids based upon iterative change in 
          total energy or number of iterations. 
          Levelshifting, if invoked, occurs when the 
          HOMO/LUMO gap drops below (HL_TOL):  1.00D-02
          DIIS, if invoked, will attempt to extrapolate 
          using up to (NFOCK): 10 stored Fock matrices.

                    Damping( 0%)  Levelshifting(0.5)       DIIS
                  --------------- ------------------- ---------------
          dE  on:    start            ASAP                start   
          dE off:    2 iters         30 iters            30 iters 


      Screening Tolerance Information
      -------------------------------
          Density screening/tol_rho:  1.00D-10
          AO Gaussian exp screening on grid/accAOfunc:  14
          CD Gaussian exp screening on grid/accCDfunc:  20
          XC Gaussian exp screening on grid/accXCfunc:  20
          Schwarz screening/accCoul:  1.00D-08



                            NWChem DFT Gradient Module
                            --------------------------


                                      ethanol



  charge          =   0.00
  wavefunction    = closed shell



                         DFT ENERGY GRADIENTS

    atom               coordinates                        gradient
                 x          y          z           x          y          z
   1 O      -0.493350  -2.369338  -0.131652   -0.002982   0.000142   0.005332
   2 C       1.059961  -0.132442   0.033236   -0.002999  -0.008409  -0.003890
   3 C      -0.484189   2.297974  -0.046063    0.000190   0.003144   0.000129
   4 H      -1.321353  -2.690907   1.461132    0.002240  -0.000586  -0.002784
   5 H       2.354457  -0.184787  -1.573940    0.002627   0.003400  -0.001151
   6 H       2.209735  -0.158859   1.766427    0.000358   0.001416   0.002352
   7 H      -1.769763   2.404321   1.573165   -0.000489  -0.000536   0.001642
   8 H       0.747006   3.962271   0.004809    0.000891   0.001710  -0.000029
   9 H      -1.603617   2.365165  -1.779337    0.000164  -0.000282  -0.001600

                 ----------------------------------------
                 |  Time  |  1-e(secs)   |  2-e(secs)   |
                 ----------------------------------------
                 |  CPU   |       0.02   |       1.01   |
                 ----------------------------------------
                 |  WALL  |       0.01   |       0.86   |
                 ----------------------------------------
  no constraints, skipping    0.0000000000000000     

  Step       Energy      Delta E   Gmax     Grms     Xrms     Xmax   Walltime
  ---- ---------------- -------- -------- -------- -------- -------- --------
@    1    -154.84526442 -3.8D-03  0.00334  0.00125  0.05197  0.17724     26.3
                                                                    



                                Z-matrix (autoz)
                                -------- 

 Units are Angstrom for bonds and degrees for angles

      Type          Name      I     J     K     L     M      Value     Gradient
      ----------- --------  ----- ----- ----- ----- ----- ---------- ----------
    1 Stretch                  1     2                       1.44376    0.00063
    2 Stretch                  1     4                       0.96507   -0.00334
    3 Stretch                  2     3                       1.52433    0.00300
    4 Stretch                  2     5                       1.09240    0.00246
    5 Stretch                  2     6                       1.10072    0.00214
    6 Stretch                  3     7                       1.09553    0.00156
    7 Stretch                  3     8                       1.09583    0.00190
    8 Stretch                  3     9                       1.09245    0.00125
    9 Bend                     1     2     3               112.63769    0.00113
   10 Bend                     1     2     5               106.80843    0.00135
   11 Bend                     1     2     6               110.77196   -0.00027
   12 Bend                     2     1     4               110.50386    0.00056
   13 Bend                     2     3     7               110.77450   -0.00056
   14 Bend                     2     3     8               111.02098    0.00039
   15 Bend                     2     3     9               109.95303   -0.00051
   16 Bend                     3     2     5               109.64018   -0.00163
   17 Bend                     3     2     6               109.26677   -0.00100
   18 Bend                     5     2     6               107.56400    0.00042
   19 Bend                     7     3     8               107.98084    0.00011
   20 Bend                     7     3     9               108.55929    0.00060
   21 Bend                     8     3     9               108.47290   -0.00000
   22 Torsion                  1     2     3     7          62.33441   -0.00057
   23 Torsion                  1     2     3     8        -177.69969   -0.00054
   24 Torsion                  1     2     3     9         -57.65765   -0.00063
   25 Torsion                  3     2     1     4         -76.25610   -0.00030
   26 Torsion                  4     1     2     5         163.31972    0.00015
   27 Torsion                  4     1     2     6          46.46475   -0.00099
   28 Torsion                  5     2     3     7        -178.88266    0.00074
   29 Torsion                  5     2     3     8         -58.91675    0.00077
   30 Torsion                  5     2     3     9          61.12528    0.00069
   31 Torsion                  6     2     3     7         -61.22644   -0.00028
   32 Torsion                  6     2     3     8          58.73946   -0.00025
   33 Torsion                  6     2     3     9         178.78150   -0.00034

  no constraints, skipping    0.0000000000000000     
  no constraints, skipping    0.0000000000000000     
  no constraints, skipping    0.0000000000000000     
  no constraints, skipping    0.0000000000000000     
  no constraints, skipping    0.0000000000000000     
  no constraints, skipping    0.0000000000000000     
  no constraints, skipping    0.0000000000000000     
  no constraints, skipping    0.0000000000000000     

                                 NWChem DFT Module
                                 -----------------


                                      ethanol




 Summary of "ao basis" -> "ao basis" (spherical)
 ------------------------------------------------------------------------------
       Tag                 Description            Shells   Functions and Types
 ---------------- ------------------------------  ------  ---------------------
 O                           6-311G                  7       13   4s3p
 C                           6-311G                  7       13   4s3p
 H                           6-311G                  3        3   3s


  Caching 1-el integrals 

            General Information
            -------------------
          SCF calculation type: DFT
          Wavefunction type:  closed shell.
          No. of atoms     :     9
          No. of electrons :    26
           Alpha electrons :    13
            Beta electrons :    13
          Charge           :     0
          Spin multiplicity:     1
          Use of symmetry is: off; symmetry adaption is: off
          Maximum number of iterations:  30
          This is a Direct SCF calculation.
          AO basis - number of functions:    57
                     number of shells:    39
          Convergence on energy requested:  1.00D-06
          Convergence on density requested:  1.00D-05
          Convergence on gradient requested:  5.00D-04

              XC Information
              --------------
                         PBE0 Method XC Functional
                     Hartree-Fock (Exact) Exchange  0.250          
          PerdewBurkeErnzerhof Exchange Functional  0.750          
            Perdew 1991 LDA Correlation Functional  1.000 local    
           PerdewBurkeErnz. Correlation Functional  1.000 non-local

             Grid Information
             ----------------
          Grid used for XC integration:  medium    
          Radial quadrature: Mura-Knowles        
          Angular quadrature: Lebedev. 
          Tag              B.-S. Rad. Rad. Pts. Rad. Cut. Ang. Pts.
          ---              ---------- --------- --------- ---------
          O                   0.60       49          10.0       434
          C                   0.70       49           9.0       434
          H                   0.35       45          11.0       434
          Grid pruning is: on 
          Number of quadrature shells:   417
          Spatial weights used:  Erf1

          Convergence Information
          -----------------------
          Convergence aids based upon iterative change in 
          total energy or number of iterations. 
          Levelshifting, if invoked, occurs when the 
          HOMO/LUMO gap drops below (HL_TOL):  1.00D-02
          DIIS, if invoked, will attempt to extrapolate 
          using up to (NFOCK): 10 stored Fock matrices.

                    Damping( 0%)  Levelshifting(0.5)       DIIS
                  --------------- ------------------- ---------------
          dE  on:    start            ASAP                start   
          dE off:    2 iters         30 iters            30 iters 


      Screening Tolerance Information
      -------------------------------
          Density screening/tol_rho:  1.00D-10
          AO Gaussian exp screening on grid/accAOfunc:  14
          CD Gaussian exp screening on grid/accCDfunc:  20
          XC Gaussian exp screening on grid/accXCfunc:  20
          Schwarz screening/accCoul:  1.00D-08


 Loading old vectors from job with title :

ethanol

   Time after variat. SCF:     26.3
   Time prior to 1st pass:     26.3

 Grid_pts file          = ./ethanol.gridpts.0
 Record size in doubles =  12289        No. of grid_pts per rec  =   3070
 Max. records in memory =     66        Max. recs in file   =   4199286


           Memory utilization after 1st SCF pass: 
           Heap Space remaining (MW):       12.29            12293338
          Stack Space remaining (MW):       13.11            13106628

   convergence    iter        energy       DeltaE   RMS-Dens  Diis-err    time
 ---------------- ----- ----------------- --------- --------- ---------  ------
 d= 0,ls=0.0,diis     1   -154.8454290138 -2.36D+02  4.25D-04  4.21D-04    27.9
 d= 0,ls=0.0,diis     2   -154.8454830407 -5.40D-05  1.70D-04  1.68D-04    29.2
 d= 0,ls=0.0,diis     3   -154.8454947199 -1.17D-05  7.29D-05  6.07D-05    30.5
 d= 0,ls=0.0,diis     4   -154.8455003644 -5.64D-06  1.47D-05  2.10D-06    31.9
 d= 0,ls=0.0,diis     5   -154.8455005768 -2.12D-07  2.57D-06  3.20D-08    33.2


         Total DFT energy =     -154.845500576771
      One electron energy =     -370.447674149311
           Coulomb energy =      155.936160172125
    Exchange-Corr. energy =      -21.508114707457
 Nuclear repulsion energy =       81.174128107872

 Numeric. integr. density =       26.000006259080

     Total iterative time =      6.8s



 center of mass
 --------------
 x =  -0.00365744 y =  -0.12802630 z =  -0.01867543

 moments of inertia (a.u.)
 ------------------
         199.431610299212          -0.994488804627          -0.203984050659
          -0.994488804627          52.729660984493           0.246316110903
          -0.203984050659           0.246316110903         224.809016298217
 Line search: 
     step= 1.00 grad=-3.9D-04 hess= 1.5D-04 energy=   -154.845501 mode=downhill
 new step= 1.27                   predicted energy=   -154.845512
  no constraints, skipping    0.0000000000000000     
  no constraints, skipping    0.0000000000000000     
  no constraints, skipping    0.0000000000000000     
  no constraints, skipping    0.0000000000000000     
  no constraints, skipping    0.0000000000000000     
  no constraints, skipping    0.0000000000000000     
  no constraints, skipping    0.0000000000000000     
  no constraints, skipping    0.0000000000000000     

          --------
          Step   2
          --------


                         Geometry "geometry" -> "ethanol"
                         --------------------------------

 Output coordinates in angstroms (scale by  1.889725989 to convert to a.u.)

  No.       Tag          Charge          X              Y              Z
 ---- ---------------- ---------- -------------- -------------- --------------
    1 O                    8.0000    -0.25696658    -1.24477072    -0.07663623
    2 C                    6.0000     0.56793594    -0.06205210     0.02110982
    3 C                    6.0000    -0.25705948     1.21250140    -0.02231780
    4 H                    1.0000    -0.70657670    -1.41290673     0.76632851
    5 H                    1.0000     1.24678464    -0.11265590    -0.82537746
    6 H                    1.0000     1.17851710    -0.08424258     0.93040818
    7 H                    1.0000    -0.93637542     1.27234611     0.82978367
    8 H                    1.0000     0.38706326     2.09277870     0.00131038
    9 H                    1.0000    -0.85348687     1.24598283    -0.93256251

      Atomic Mass 
      ----------- 

      O                 15.994910
      C                 12.000000
      H                  1.007825


 Effective nuclear repulsion energy (a.u.)      81.2122481674

            Nuclear Dipole moment (a.u.) 
            ----------------------------
        X                 Y               Z
 ---------------- ---------------- ----------------
     0.2370701431    -0.1023617397     0.2826142852


                                 NWChem DFT Module
                                 -----------------


                                      ethanol




 Summary of "ao basis" -> "ao basis" (spherical)
 ------------------------------------------------------------------------------
       Tag                 Description            Shells   Functions and Types
 ---------------- ------------------------------  ------  ---------------------
 O                           6-311G                  7       13   4s3p
 C                           6-311G                  7       13   4s3p
 H                           6-311G                  3        3   3s


  Caching 1-el integrals 

            General Information
            -------------------
          SCF calculation type: DFT
          Wavefunction type:  closed shell.
          No. of atoms     :     9
          No. of electrons :    26
           Alpha electrons :    13
            Beta electrons :    13
          Charge           :     0
          Spin multiplicity:     1
          Use of symmetry is: off; symmetry adaption is: off
          Maximum number of iterations:  30
          This is a Direct SCF calculation.
          AO basis - number of functions:    57
                     number of shells:    39
          Convergence on energy requested:  1.00D-06
          Convergence on density requested:  1.00D-05
          Convergence on gradient requested:  5.00D-04

              XC Information
              --------------
                         PBE0 Method XC Functional
                     Hartree-Fock (Exact) Exchange  0.250          
          PerdewBurkeErnzerhof Exchange Functional  0.750          
            Perdew 1991 LDA Correlation Functional  1.000 local    
           PerdewBurkeErnz. Correlation Functional  1.000 non-local

             Grid Information
             ----------------
          Grid used for XC integration:  medium    
          Radial quadrature: Mura-Knowles        
          Angular quadrature: Lebedev. 
          Tag              B.-S. Rad. Rad. Pts. Rad. Cut. Ang. Pts.
          ---              ---------- --------- --------- ---------
          O                   0.60       49          10.0       434
          C                   0.70       49           9.0       434
          H                   0.35       45          11.0       434
          Grid pruning is: on 
          Number of quadrature shells:   417
          Spatial weights used:  Erf1

          Convergence Information
          -----------------------
          Convergence aids based upon iterative change in 
          total energy or number of iterations. 
          Levelshifting, if invoked, occurs when the 
          HOMO/LUMO gap drops below (HL_TOL):  1.00D-02
          DIIS, if invoked, will attempt to extrapolate 
          using up to (NFOCK): 10 stored Fock matrices.

                    Damping( 0%)  Levelshifting(0.5)       DIIS
                  --------------- ------------------- ---------------
          dE  on:    start            ASAP                start   
          dE off:    2 iters         30 iters            30 iters 


      Screening Tolerance Information
      -------------------------------
          Density screening/tol_rho:  1.00D-10
          AO Gaussian exp screening on grid/accAOfunc:  14
          CD Gaussian exp screening on grid/accCDfunc:  20
          XC Gaussian exp screening on grid/accXCfunc:  20
          Schwarz screening/accCoul:  1.00D-08


 Loading old vectors from job with title :

ethanol

   Time after variat. SCF:     33.2
   Time prior to 1st pass:     33.2

 Grid_pts file          = ./ethanol.gridpts.0
 Record size in doubles =  12289        No. of grid_pts per rec  =   3070
 Max. records in memory =     66        Max. recs in file   =   4199256


           Memory utilization after 1st SCF pass: 
           Heap Space remaining (MW):       12.29            12293338
          Stack Space remaining (MW):       13.11            13106628

   convergence    iter        energy       DeltaE   RMS-Dens  Diis-err    time
 ---------------- ----- ----------------- --------- --------- ---------  ------
 d= 0,ls=0.0,diis     1   -154.8455064530 -2.36D+02  1.17D-04  3.14D-05    34.9
 d= 0,ls=0.0,diis     2   -154.8455104971 -4.04D-06  4.66D-05  1.26D-05    36.4
 d= 0,ls=0.0,diis     3   -154.8455113682 -8.71D-07  2.00D-05  4.54D-06    37.8
 d= 0,ls=0.0,diis     4   -154.8455117907 -4.22D-07  4.03D-06  1.58D-07    39.2


         Total DFT energy =     -154.845511790725
      One electron energy =     -370.522188903874
           Coulomb energy =      155.974195479424
    Exchange-Corr. energy =      -21.509766533638
 Nuclear repulsion energy =       81.212248167363

 Numeric. integr. density =       26.000006719495

     Total iterative time =      6.0s



 center of mass
 --------------
 x =  -0.00251358 y =  -0.12640690 z =  -0.01905945

 moments of inertia (a.u.)
 ------------------
         199.013127671460          -0.919265002425          -0.246177102580
          -0.919265002425          52.779869958004           0.094404879539
          -0.246177102580           0.094404879539         224.496810944015

            General Information
            -------------------
          SCF calculation type: DFT
          Wavefunction type:  closed shell.
          No. of atoms     :     9
          No. of electrons :    26
           Alpha electrons :    13
            Beta electrons :    13
          Charge           :     0
          Spin multiplicity:     1
          Use of symmetry is: off; symmetry adaption is: off
          Maximum number of iterations:  30
          This is a Direct SCF calculation.
          AO basis - number of functions:    57
                     number of shells:    39
          Convergence on energy requested:  1.00D-06
          Convergence on density requested:  1.00D-05
          Convergence on gradient requested:  5.00D-04

              XC Information
              --------------
                         PBE0 Method XC Functional
                     Hartree-Fock (Exact) Exchange  0.250          
          PerdewBurkeErnzerhof Exchange Functional  0.750          
            Perdew 1991 LDA Correlation Functional  1.000 local    
           PerdewBurkeErnz. Correlation Functional  1.000 non-local

             Grid Information
             ----------------
          Grid used for XC integration:  medium    
          Radial quadrature: Mura-Knowles        
          Angular quadrature: Lebedev. 
          Tag              B.-S. Rad. Rad. Pts. Rad. Cut. Ang. Pts.
          ---              ---------- --------- --------- ---------
          O                   0.60       49          10.0       434
          C                   0.70       49           9.0       434
          H                   0.35       45          11.0       434
          Grid pruning is: on 
          Number of quadrature shells:   417
          Spatial weights used:  Erf1

          Convergence Information
          -----------------------
          Convergence aids based upon iterative change in 
          total energy or number of iterations. 
          Levelshifting, if invoked, occurs when the 
          HOMO/LUMO gap drops below (HL_TOL):  1.00D-02
          DIIS, if invoked, will attempt to extrapolate 
          using up to (NFOCK): 10 stored Fock matrices.

                    Damping( 0%)  Levelshifting(0.5)       DIIS
                  --------------- ------------------- ---------------
          dE  on:    start            ASAP                start   
          dE off:    2 iters         30 iters            30 iters 


      Screening Tolerance Information
      -------------------------------
          Density screening/tol_rho:  1.00D-10
          AO Gaussian exp screening on grid/accAOfunc:  14
          CD Gaussian exp screening on grid/accCDfunc:  20
          XC Gaussian exp screening on grid/accXCfunc:  20
          Schwarz screening/accCoul:  1.00D-08



                            NWChem DFT Gradient Module
                            --------------------------


                                      ethanol



  charge          =   0.00
  wavefunction    = closed shell



                         DFT ENERGY GRADIENTS

    atom               coordinates                        gradient
                 x          y          z           x          y          z
   1 O      -0.485596  -2.352276  -0.144821   -0.000250   0.002433  -0.000700
   2 C       1.073243  -0.117261   0.039892    0.001226  -0.003359  -0.002136
   3 C      -0.485772   2.291295  -0.042175   -0.001460   0.001911   0.000457
   4 H      -1.335236  -2.670007   1.448151    0.000375  -0.001117   0.001282
   5 H       2.356081  -0.212889  -1.559737   -0.000082   0.000251   0.002119
   6 H       2.227074  -0.159195   1.758217   -0.000420   0.000827  -0.000840
   7 H      -1.769493   2.404386   1.568064    0.000555   0.000143  -0.001057
   8 H       0.731443   3.954778   0.002476   -0.000657  -0.001324  -0.000003
   9 H      -1.612856   2.354566  -1.762288    0.000713   0.000236   0.000877

                 ----------------------------------------
                 |  Time  |  1-e(secs)   |  2-e(secs)   |
                 ----------------------------------------
                 |  CPU   |       0.02   |       1.16   |
                 ----------------------------------------
                 |  WALL  |       0.01   |       1.03   |
                 ----------------------------------------
  no constraints, skipping    0.0000000000000000     

  Step       Energy      Delta E   Gmax     Grms     Xrms     Xmax   Walltime
  ---- ---------------- -------- -------- -------- -------- -------- --------
@    2    -154.84551179 -2.5D-04  0.00171  0.00065  0.01219  0.02793     41.6
                                                                    



                                Z-matrix (autoz)
                                -------- 

 Units are Angstrom for bonds and degrees for angles

      Type          Name      I     J     K     L     M      Value     Gradient
      ----------- --------  ----- ----- ----- ----- ----- ---------- ----------
    1 Stretch                  1     2                       1.44528   -0.00119
    2 Stretch                  1     4                       0.97006    0.00114
    3 Stretch                  2     3                       1.51888    0.00126
    4 Stretch                  2     5                       1.08625   -0.00171
    5 Stretch                  2     6                       1.09550   -0.00095
    6 Stretch                  3     7                       1.09139   -0.00116
    7 Stretch                  3     8                       1.09103   -0.00146
    8 Stretch                  3     9                       1.08876   -0.00112
    9 Bend                     1     2     3               112.00882   -0.00011
   10 Bend                     1     2     5               105.41843    0.00028
   11 Bend                     1     2     6               110.95727    0.00021
   12 Bend                     2     1     4               110.34097    0.00023
   13 Bend                     2     3     7               111.20902    0.00026
   14 Bend                     2     3     8               110.83977   -0.00028
   15 Bend                     2     3     9               110.31957    0.00013
   16 Bend                     3     2     5               110.87058    0.00011
   17 Bend                     3     2     6               110.08794   -0.00027
   18 Bend                     5     2     6               107.31118   -0.00020
   19 Bend                     7     3     8               107.83777    0.00000
   20 Bend                     7     3     9               108.06404   -0.00012
   21 Bend                     8     3     9               108.46401   -0.00001
   22 Torsion                  1     2     3     7          62.94358   -0.00012
   23 Torsion                  1     2     3     8        -177.10298   -0.00013
   24 Torsion                  1     2     3     9         -56.94910   -0.00023
   25 Torsion                  3     2     1     4         -75.90367   -0.00022
   26 Torsion                  4     1     2     5         163.42695   -0.00047
   27 Torsion                  4     1     2     6          47.56739   -0.00050
   28 Torsion                  5     2     3     7        -179.60389    0.00023
   29 Torsion                  5     2     3     8         -59.65046    0.00023
   30 Torsion                  5     2     3     9          60.50343    0.00013
   31 Torsion                  6     2     3     7         -61.01516   -0.00011
   32 Torsion                  6     2     3     8          58.93828   -0.00012
   33 Torsion                  6     2     3     9         179.09217   -0.00022

  no constraints, skipping    0.0000000000000000     
  no constraints, skipping    0.0000000000000000     
  no constraints, skipping    0.0000000000000000     
  no constraints, skipping    0.0000000000000000     
  no constraints, skipping    0.0000000000000000     
  no constraints, skipping    0.0000000000000000     
  no constraints, skipping    0.0000000000000000     
  no constraints, skipping    0.0000000000000000     

                                 NWChem DFT Module
                                 -----------------


                                      ethanol




 Summary of "ao basis" -> "ao basis" (spherical)
 ------------------------------------------------------------------------------
       Tag                 Description            Shells   Functions and Types
 ---------------- ------------------------------  ------  ---------------------
 O                           6-311G                  7       13   4s3p
 C                           6-311G                  7       13   4s3p
 H                           6-311G                  3        3   3s


  Caching 1-el integrals 

            General Information
            -------------------
          SCF calculation type: DFT
          Wavefunction type:  closed shell.
          No. of atoms     :     9
          No. of electrons :    26
           Alpha electrons :    13
            Beta electrons :    13
          Charge           :     0
          Spin multiplicity:     1
          Use of symmetry is: off; symmetry adaption is: off
          Maximum number of iterations:  30
          This is a Direct SCF calculation.
          AO basis - number of functions:    57
                     number of shells:    39
          Convergence on energy requested:  1.00D-06
          Convergence on density requested:  1.00D-05
          Convergence on gradient requested:  5.00D-04

              XC Information
              --------------
                         PBE0 Method XC Functional
                     Hartree-Fock (Exact) Exchange  0.250          
          PerdewBurkeErnzerhof Exchange Functional  0.750          
            Perdew 1991 LDA Correlation Functional  1.000 local    
           PerdewBurkeErnz. Correlation Functional  1.000 non-local

             Grid Information
             ----------------
          Grid used for XC integration:  medium    
          Radial quadrature: Mura-Knowles        
          Angular quadrature: Lebedev. 
          Tag              B.-S. Rad. Rad. Pts. Rad. Cut. Ang. Pts.
          ---              ---------- --------- --------- ---------
          O                   0.60       49          10.0       434
          C                   0.70       49           9.0       434
          H                   0.35       45          11.0       434
          Grid pruning is: on 
          Number of quadrature shells:   417
          Spatial weights used:  Erf1

          Convergence Information
          -----------------------
          Convergence aids based upon iterative change in 
          total energy or number of iterations. 
          Levelshifting, if invoked, occurs when the 
          HOMO/LUMO gap drops below (HL_TOL):  1.00D-02
          DIIS, if invoked, will attempt to extrapolate 
          using up to (NFOCK): 10 stored Fock matrices.

                    Damping( 0%)  Levelshifting(0.5)       DIIS
                  --------------- ------------------- ---------------
          dE  on:    start            ASAP                start   
          dE off:    2 iters         30 iters            30 iters 


      Screening Tolerance Information
      -------------------------------
          Density screening/tol_rho:  1.00D-10
          AO Gaussian exp screening on grid/accAOfunc:  14
          CD Gaussian exp screening on grid/accCDfunc:  20
          XC Gaussian exp screening on grid/accXCfunc:  20
          Schwarz screening/accCoul:  1.00D-08


 Loading old vectors from job with title :

ethanol

   Time after variat. SCF:     41.7
   Time prior to 1st pass:     41.7

 Grid_pts file          = ./ethanol.gridpts.0
 Record size in doubles =  12289        No. of grid_pts per rec  =   3070
 Max. records in memory =     66        Max. recs in file   =   4199286


           Memory utilization after 1st SCF pass: 
           Heap Space remaining (MW):       12.29            12293338
          Stack Space remaining (MW):       13.11            13106628

   convergence    iter        energy       DeltaE   RMS-Dens  Diis-err    time
 ---------------- ----- ----------------- --------- --------- ---------  ------
 d= 0,ls=0.0,diis     1   -154.8455475377 -2.36D+02  1.78D-04  9.30D-05    43.4
 d= 0,ls=0.0,diis     2   -154.8455640219 -1.65D-05  3.41D-05  2.55D-06    44.8
 d= 0,ls=0.0,diis     3   -154.8455641908 -1.69D-07  1.34D-05  1.89D-06    46.2
 d= 0,ls=0.0,diis     4   -154.8455644014 -2.11D-07  3.67D-06  4.83D-08    47.6


         Total DFT energy =     -154.845564401413
      One electron energy =     -370.516913695406
           Coulomb energy =      155.970829773352
    Exchange-Corr. energy =      -21.508210513361
 Nuclear repulsion energy =       81.208730034002

 Numeric. integr. density =       26.000006998950

     Total iterative time =      5.9s



 center of mass
 --------------
 x =  -0.00083558 y =  -0.12542823 z =  -0.01836322

 moments of inertia (a.u.)
 ------------------
         198.820230366286          -0.949549227282          -0.309718919844
          -0.949549227282          52.843082967390          -0.020863887471
          -0.309718919844          -0.020863887471         224.316182638049
 Line search: 
     step= 1.00 grad=-7.2D-05 hess= 1.9D-05 energy=   -154.845564 mode=downhill
 new step= 1.88                   predicted energy=   -154.845579
  no constraints, skipping    0.0000000000000000     
  no constraints, skipping    0.0000000000000000     
  no constraints, skipping    0.0000000000000000     
  no constraints, skipping    0.0000000000000000     
  no constraints, skipping    0.0000000000000000     
  no constraints, skipping    0.0000000000000000     
  no constraints, skipping    0.0000000000000000     
  no constraints, skipping    0.0000000000000000     

          --------
          Step   3
          --------


                         Geometry "geometry" -> "ethanol"
                         --------------------------------

 Output coordinates in angstroms (scale by  1.889725989 to convert to a.u.)

  No.       Tag          Charge          X              Y              Z
 ---- ---------------- ---------- -------------- -------------- --------------
    1 O                    8.0000    -0.25474568    -1.24393529    -0.07798583
    2 C                    6.0000     0.57028652    -0.05741160     0.02507010
    3 C                    6.0000    -0.25543564     1.21080716    -0.02152214
    4 H                    1.0000    -0.71267270    -1.40378222     0.75974228
    5 H                    1.0000     1.24565020    -0.11641505    -0.82807883
    6 H                    1.0000     1.18305650    -0.08702332     0.93442366
    7 H                    1.0000    -0.93489921     1.26875106     0.83360755
    8 H                    1.0000     0.38432962     2.09809721    -0.00098889
    9 H                    1.0000    -0.85573371     1.23789306    -0.93222135

      Atomic Mass 
      ----------- 

      O                 15.994910
      C                 12.000000
      H                  1.007825


 Effective nuclear repulsion energy (a.u.)      81.2059180281

[...]
    2 C                |   1 O                |   4 H                |   109.84
    1 O                |   2 C                |   3 C                |   112.10
    1 O                |   2 C                |   5 H                |   104.72
    1 O                |   2 C                |   6 H                |   110.55
    3 C                |   2 C                |   5 H                |   110.86
    3 C                |   2 C                |   6 H                |   110.57
    5 H                |   2 C                |   6 H                |   107.81
    2 C                |   3 C                |   7 H                |   111.12
    2 C                |   3 C                |   8 H                |   111.24
    2 C                |   3 C                |   9 H                |   110.22
    7 H                |   3 C                |   8 H                |   107.59
    7 H                |   3 C                |   9 H                |   108.06
    8 H                |   3 C                |   9 H                |   108.49
 ------------------------------------------------------------------------------
                            number of included internuclear angles:         13
 ==============================================================================




 Task  times  cpu:      266.3s     wall:      128.2s


                                NWChem Input Module
                                -------------------


                              NWChem Property Module
                              ----------------------


                                      ethanol

  itol2e modified to match energy
  convergence criterion.

                                 NWChem DFT Module
                                 -----------------


                                      ethanol




 Summary of "ao basis" -> "ao basis" (spherical)
 ------------------------------------------------------------------------------
       Tag                 Description            Shells   Functions and Types
 ---------------- ------------------------------  ------  ---------------------
 O                           6-311G                  7       13   4s3p
 C                           6-311G                  7       13   4s3p
 H                           6-311G                  3        3   3s


  Caching 1-el integrals 
  itol2e modified to match energy
  convergence criterion.

            General Information
            -------------------
          SCF calculation type: DFT
          Wavefunction type:  closed shell.
          No. of atoms     :     9
          No. of electrons :    26
           Alpha electrons :    13
            Beta electrons :    13
          Charge           :     0
          Spin multiplicity:     1
          Use of symmetry is: off; symmetry adaption is: off
          Maximum number of iterations:  30
          This is a Direct SCF calculation.
          AO basis - number of functions:    57
                     number of shells:    39
          Convergence on energy requested:  1.00D-07
          Convergence on density requested:  1.00D-05
          Convergence on gradient requested:  5.00D-04

              XC Information
              --------------
                         PBE0 Method XC Functional
                     Hartree-Fock (Exact) Exchange  0.250          
          PerdewBurkeErnzerhof Exchange Functional  0.750          
            Perdew 1991 LDA Correlation Functional  1.000 local    
           PerdewBurkeErnz. Correlation Functional  1.000 non-local

             Grid Information
             ----------------
          Grid used for XC integration:  fine      
          Radial quadrature: Mura-Knowles        
          Angular quadrature: Lebedev. 
          Tag              B.-S. Rad. Rad. Pts. Rad. Cut. Ang. Pts.
          ---              ---------- --------- --------- ---------
          O                   0.60       70          10.0       590
          C                   0.70       70           9.0       590
          H                   0.35       60          11.0       590
          Grid pruning is: on 
          Number of quadrature shells:   570
          Spatial weights used:  Erf1

          Convergence Information
          -----------------------
          Convergence aids based upon iterative change in 
          total energy or number of iterations. 
          Levelshifting, if invoked, occurs when the 
          HOMO/LUMO gap drops below (HL_TOL):  1.00D-02
          DIIS, if invoked, will attempt to extrapolate 
          using up to (NFOCK): 10 stored Fock matrices.

                    Damping( 0%)  Levelshifting(0.5)       DIIS
                  --------------- ------------------- ---------------
          dE  on:    start            ASAP                start   
          dE off:    2 iters         30 iters            30 iters 


      Screening Tolerance Information
      -------------------------------
          Density screening/tol_rho:  1.00D-11
          AO Gaussian exp screening on grid/accAOfunc:  16
          CD Gaussian exp screening on grid/accCDfunc:  20
          XC Gaussian exp screening on grid/accXCfunc:  20
          Schwarz screening/accCoul:  1.00D-08


 Loading old vectors from job with title :

ethanol

   Time after variat. SCF:    128.2
   Time prior to 1st pass:    128.2

 Grid_pts file          = ./ethanol.gridpts.0
 Record size in doubles =  12289        No. of grid_pts per rec  =   3070
 Max. records in memory =    122        Max. recs in file   =   4199286


           Memory utilization after 1st SCF pass: 
           Heap Space remaining (MW):       11.61            11605154
          Stack Space remaining (MW):       13.11            13106628

   convergence    iter        energy       DeltaE   RMS-Dens  Diis-err    time
 ---------------- ----- ----------------- --------- --------- ---------  ------
 d= 0,ls=0.0,diis     1   -154.8458624842 -2.36D+02  4.85D-06  5.94D-08   130.8
 d= 0,ls=0.0,diis     2   -154.8458624797  4.45D-09  2.83D-06  1.07D-07   132.9


         Total DFT energy =     -154.845862479703
      One electron energy =     -370.555255762455
           Coulomb energy =      155.979041177322
    Exchange-Corr. energy =      -21.506680518190
 Nuclear repulsion energy =       81.237032623620

 Numeric. integr. density =       25.999999487141

     Total iterative time =      4.6s



 center of mass
 --------------
 x =   0.04222442 y =  -0.14757565 z =  -0.00009557

 moments of inertia (a.u.)
 ------------------
         197.639814394600           1.741719063912           0.116310167332
           1.741719063912          53.175958748492          -0.171097780715
           0.116310167332          -0.171097780715         224.331532534151

          -----------------------------------------
          Chemical Shielding Tensors (GIAO, in ppm)
          -----------------------------------------

    0 giaofock schwarz done =      95.89%
    0 giaofock schwarz done =      95.89%
                                NWChem CPHF Module
                                ------------------


  scftype          =     RHF 
  nclosed          =       13
  nopen            =        0
  variables        =      572
  # of vectors     =        3
  tolerance        = 0.10D-03
  level shift      = 0.00D+00
  max iterations   =       50
  max subspace     =       30

 SCF residual:    4.3438638630327881E-005


Iterative solution of linear equations
  No. of variables      572
  No. of equations        3
  Maximum subspace       30
        Iterations       50
       Convergence  1.0D-04
        Start time    152.2


   iter   nsub   residual    time
   ----  ------  --------  ---------
     1      3    2.09D-01     157.8
     2      6    1.42D-02     163.5
     3      9    1.01D-03     169.2
     4     12    7.39D-05     175.2

 Wrote CPHF data to ./ethanol.shieldcphf

 Calc. par tensor-> nonrel
      Atom:    1  O 
        Diamagnetic
    393.4876     14.3442     -8.4549
     14.3442    392.6380     -0.3191
     -8.4549     -0.3191    385.3108

        Paramagnetic
   -119.8975    -20.8126    -21.5800
    -20.8126   -110.1902      1.9921
    -21.5800      1.9921   -115.7095

        Total Shielding Tensor
    273.5901     -6.4685    -30.0348
     -6.4685    282.4478      1.6730
    -30.0348      1.6730    269.6014

           isotropic =     275.2131
          anisotropy =      42.2139

          Principal Components and Axis System
                 1           2           3
              303.3557    281.0405    241.2431

      1         0.7121      0.1459      0.6867
      2        -0.2721      0.9591      0.0785
      3        -0.6472     -0.2427      0.7227



      Atom:    2  C 
        Diamagnetic
    243.9932     -0.8233      1.5630
     -0.8233    256.0834      0.4222
      1.5630      0.4222    235.8530

        Paramagnetic
   -104.3402     28.3861      0.2106
     28.3861   -100.3019     -0.5177
      0.2106     -0.5177   -133.7110

        Total Shielding Tensor
    139.6530     27.5627      1.7736
     27.5627    155.7815     -0.0955
      1.7736     -0.0955    102.1420

           isotropic =     132.5255
          anisotropy =      65.8847

          Principal Components and Axis System
                 1           2           3
              176.4486    119.1273    102.0006

      1         0.5999      0.7964     -0.0772
      2         0.8000     -0.5986      0.0413
      3         0.0133      0.0865      0.9962



      Atom:    3  C 
        Diamagnetic
    248.1982     -6.1531     -0.3112
     -6.1531    257.3512     -0.3149
     -0.3112     -0.3149    243.7976

        Paramagnetic
    -71.7903     -2.6417      1.4813
     -2.6417    -66.8561     -1.2101
      1.4813     -1.2101    -86.3728

        Total Shielding Tensor
    176.4079     -8.7948      1.1701
     -8.7948    190.4951     -1.5250
      1.1701     -1.5250    157.4247

           isotropic =     174.7759
          anisotropy =      30.0569

          Principal Components and Axis System
                 1           2           3
              194.8139    172.1943    157.3196

      1        -0.4332      0.9001     -0.0456
      2         0.8999      0.4348      0.0338
      3        -0.0503      0.0264      0.9984



      Atom:    4  H 
        Diamagnetic
     31.1430      3.7634    -10.6228
      3.7634     25.5334     -2.3431
    -10.6228     -2.3431     32.8343

        Paramagnetic
      1.9646      0.1311      3.3428
      0.1311      5.3798      0.6553
      3.3428      0.6553      1.7551

        Total Shielding Tensor
     33.1076      3.8945     -7.2800
      3.8945     30.9132     -1.6878
     -7.2800     -1.6878     34.5894

           isotropic =      32.8701
          anisotropy =      14.4127

          Principal Components and Axis System
                 1           2           3
               42.4785     30.3448     25.7869

      1        -0.6606      0.0888      0.7454
      2        -0.3215      0.8639     -0.3878
      3         0.6784      0.4958      0.5421



      Atom:    5  H 
        Diamagnetic
     31.4795     -0.1750     -7.8009
     -0.1750     26.1526      0.2045
     -7.8009      0.2045     30.8208

        Paramagnetic
     -0.5444      0.6698      3.5543
      0.6698      2.6381     -0.1694
      3.5543     -0.1694     -3.5940

        Total Shielding Tensor
     30.9351      0.4949     -4.2465
      0.4949     28.7907      0.0351
     -4.2465      0.0351     27.2268

           isotropic =      28.9842
          anisotropy =       7.1429

          Principal Components and Axis System
                 1           2           3
               33.7461     28.7799     24.4265

      1         0.8355     -0.0288      0.5488
      2         0.0796      0.9944     -0.0689
      3        -0.5438      0.1013      0.8331



      Atom:    6  H 
        Diamagnetic
     30.3521      0.3255      7.8713
      0.3255     25.8287      0.1382
      7.8713      0.1382     31.8957

        Paramagnetic
      0.0875      0.5452     -3.4405
      0.5452      3.0550     -0.0388
     -3.4405     -0.0388     -4.5324

        Total Shielding Tensor
     30.4395      0.8708      4.4308
      0.8708     28.8837      0.0994
      4.4308      0.0994     27.3633

           isotropic =      28.8955
          anisotropy =       7.2276

          Principal Components and Axis System
                 1           2           3
               33.7139     28.8000     24.1726

      1         0.8087     -0.0756     -0.5833
      2         0.1575      0.9833      0.0908
      3         0.5667     -0.1653      0.8072



      Atom:    7  H 
        Diamagnetic
     30.0640     -2.5676     -7.0338
     -2.5676     27.6947      1.9010
     -7.0338      1.9010     31.9952

        Paramagnetic
      1.7354      0.7495      3.5560
      0.7495      2.9318     -0.6263
      3.5560     -0.6263      1.0037

        Total Shielding Tensor
     31.7994     -1.8181     -3.4778
     -1.8181     30.6264      1.2747
     -3.4778      1.2747     32.9990

           isotropic =      31.8083
          anisotropy =       7.3268

          Principal Components and Axis System
                 1           2           3
               36.6928     30.0998     28.6322

      1        -0.6254     -0.1006      0.7738
      2         0.3355      0.8607      0.3830
      3         0.7045     -0.4991      0.5045



      Atom:    8  H 
        Diamagnetic
     27.9743      5.3374     -0.1874
      5.3374     37.7230     -0.2183
     -0.1874     -0.2183     23.9932

        Paramagnetic
      2.1448     -2.5284     -0.0514
     -2.5284     -0.8824      0.0631
     -0.0514      0.0631      3.7715

        Total Shielding Tensor
     30.1191      2.8091     -0.2388
      2.8091     36.8406     -0.1552
     -0.2388     -0.1552     27.7647

           isotropic =      31.5748
          anisotropy =       9.4355

          Principal Components and Axis System
                 1           2           3
               37.8651     29.1213     27.7379

      1         0.3414      0.9315      0.1251
      2         0.9396     -0.3415     -0.0217
      3        -0.0225     -0.1249      0.9919



      Atom:    9  H 
        Diamagnetic
     29.1063     -2.2587      6.9538
     -2.2587     27.0612     -1.6393
      6.9538     -1.6393     32.4838

        Paramagnetic
      1.7602      0.6174     -3.3259
      0.6174      2.5797      0.2722
     -3.3259      0.2722      0.7180

        Total Shielding Tensor
     30.8665     -1.6413      3.6278
     -1.6413     29.6409     -1.3671
      3.6278     -1.3671     33.2018

           isotropic =      31.2364
          anisotropy =       7.8596

          Principal Components and Axis System
                 1           2           3
               36.4761     29.2536     27.9795

      1         0.5781     -0.1923      0.7930
      2        -0.2913      0.8592      0.4207
      3         0.7622      0.4742     -0.4407




 Task  times  cpu:       97.0s     wall:       47.5s
 Summary of allocated global arrays
-----------------------------------
  No active global arrays



                         GA Statistics for process    0
                         ------------------------------

       create   destroy   get      put      acc     scatter   gather  read&inc
calls: 2400     2305     4.92e+06 1.20e+04 1.93e+06  391        0     2.02e+04 
number of processes/call 0.00e+00 0.00e+00 0.00e+00 0.00e+00 0.00e+00
bytes total:             5.02e+08 4.14e+07 3.38e+08 2.60e+04 0.00e+00 1.62e+05
bytes remote:            0.00e+00 0.00e+00 0.00e+00 0.00e+00 0.00e+00 0.00e+00
Max memory consumed for GA by this process: 2339280 bytes
MA_summarize_allocated_blocks: starting scan ...
MA_summarize_allocated_blocks: scan completed: 0 heap blocks, 0 stack blocks
MA usage statistics:

	allocation statistics:
					      heap	     stack
					      ----	     -----
	current number of blocks	         0	         0
	maximum number of blocks	        25	        53
	current total bytes		         0	         0
	maximum total bytes		  12016240	  22513368
	maximum total K-bytes		     12017	     22514
	maximum total M-bytes		        13	        23


                                NWChem Input Module
                                -------------------





                                     CITATION
                                     --------
                Please cite the following reference when publishing
                           results obtained with NWChem:

          E. Apr, E. J. Bylaska, W. A. de Jong, N. Govind, K. Kowalski,
       T. P. Straatsma, M. Valiev, H. J. J. van Dam, Y. Alexeev, J. Anchell,
       V. Anisimov, F. W. Aquino, R. Atta-Fynn, J. Autschbach, N. P. Bauman,
     J. C. Becca, D. E. Bernholdt, K. Bhaskaran-Nair, S. Bogatko, P. Borowski,
        J. Boschen, J. Brabec, A. Bruner, E. Caut, Y. Chen, G. N. Chuev,
      C. J. Cramer, J. Daily, M. J. O. Deegan, T. H. Dunning Jr., M. Dupuis,
   K. G. Dyall, G. I. Fann, S. A. Fischer, A. Fonari, H. Frchtl, L. Gagliardi,
      J. Garza, N. Gawande, S. Ghosh, K. Glaesemann, A. W. Gtz, J. Hammond,
       V. Helms, E. D. Hermes, K. Hirao, S. Hirata, M. Jacquelin, L. Jensen,
   B. G. Johnson, H. Jnsson, R. A. Kendall, M. Klemm, R. Kobayashi, V. Konkov,
      S. Krishnamoorthy, M. Krishnan, Z. Lin, R. D. Lins, R. J. Littlefield,
      A. J. Logsdail, K. Lopata, W. Ma, A. V. Marenich, J. Martin del Campo,
   D. Mejia-Rodriguez, J. E. Moore, J. M. Mullin, T. Nakajima, D. R. Nascimento,
    J. A. Nichols, P. J. Nichols, J. Nieplocha, A. Otero-de-la-Roza, B. Palmer,
    A. Panyala, T. Pirojsirikul, B. Peng, R. Peverati, J. Pittner, L. Pollack,
   R. M. Richard, P. Sadayappan, G. C. Schatz, W. A. Shelton, D. W. Silverstein,
   D. M. A. Smith, T. A. Soares, D. Song, M. Swart, H. L. Taylor, G. S. Thomas,
            V. Tipparaju, D. G. Truhlar, K. Tsemekhman, T. Van Voorhis,
     . Vzquez-Mayagoitia, P. Verma, O. Villa, A. Vishnu, K. D. Vogiatzis,
        D. Wang, J. H. Weare, M. J. Williamson, T. L. Windus, K. Woliski,
        A. T. Wong, Q. Wu, C. Yang, Q. Yu, M. Zacharias, Z. Zhang, Y. Zhao,
                                and R. J. Harrison
                        "NWChem: Past, present, and future
                         J. Chem. Phys. 152, 184102 (2020)
                               doi:10.1063/5.0004997

                                      AUTHORS
                                      -------
     E. Apra, E. J. Bylaska, N. Govind, K. Kowalski, M. Valiev, W. A. de Jong,
      T. P. Straatsma, H. J. J. van Dam, D. Wang, T. L. Windus, N. P. Bauman,
       A. Panyala, J. Hammond, J. Autschbach, K. Bhaskaran-Nair, J. Brabec,
    K. Lopata, S. A. Fischer, S. Krishnamoorthy, M. Jacquelin, W. Ma, M. Klemm,
       O. Villa, Y. Chen, V. Anisimov, F. Aquino, S. Hirata, M. T. Hackler,
           Eric Hermes, L. Jensen, J. E. Moore, J. C. Becca, V. Konjkov,
            D. Mejia-Rodriguez, T. Risthaus, M. Malagoli, A. Marenich,
   A. Otero-de-la-Roza, J. Mullin, P. Nichols, R. Peverati, J. Pittner, Y. Zhao,
        P.-D. Fan, A. Fonari, M. J. Williamson, R. J. Harrison, J. R. Rehr,
      M. Dupuis, D. Silverstein, D. M. A. Smith, J. Nieplocha, V. Tipparaju,
      M. Krishnan, B. E. Van Kuiken, A. Vazquez-Mayagoitia, M. Swart, Q. Wu,
   T. Van Voorhis, A. A. Auer, M. Nooijen, L. D. Crosby, E. Brown, G. Cisneros,
     G. I. Fann, H. Fruchtl, J. Garza, K. Hirao, R. A. Kendall, J. A. Nichols,
       K. Tsemekhman, K. Wolinski, J. Anchell, D. E. Bernholdt, P. Borowski,
       T. Clark, D. Clerc, H. Dachsel, M. J. O. Deegan, K. Dyall, D. Elwood,
      E. Glendening, M. Gutowski, A. C. Hess, J. Jaffe, B. G. Johnson, J. Ju,
        R. Kobayashi, R. Kutteh, Z. Lin, R. Littlefield, X. Long, B. Meng,
      T. Nakajima, S. Niu, L. Pollack, M. Rosing, K. Glaesemann, G. Sandrone,
      M. Stave, H. Taylor, G. Thomas, J. H. van Lenthe, A. T. Wong, Z. Zhang.

 Total times  cpu:      363.3s     wall:      175.7s
