 argument  1 = TMS.nw



============================== echo of input deck ==============================
start

title "TMS NMR PBE0/def2-tzvpd"

echo
geometry tms
Si   0.00000000     0.00000000     0.00000000
C    1.08400099     1.08400099     1.08400099
H    1.72826560     1.72826560     0.47927400
H    1.72826560     0.47927400     1.72826560
H    0.47927400     1.72826560     1.72826560
C   -1.08400099    -1.08400099     1.08400099
H   -1.72826560    -0.47927400     1.72826560
H   -1.72826560    -1.72826560     0.47927400
H   -0.47927400    -1.72826560     1.72826560
C    1.08400099    -1.08400099    -1.08400099
H    0.47927400    -1.72826560    -1.72826560
H    1.72826560    -0.47927400    -1.72826560
H    1.72826560    -1.72826560    -0.47927400
C   -1.08400099     1.08400099    -1.08400099
H   -1.72826560     0.47927400    -1.72826560
H   -1.72826560     1.72826560    -0.47927400
H   -0.47927400     1.72826560    -1.72826560
end

basis spherical
* library 6-311G
end

dft
direct
xc pbe0
noprint "final vectors analysis" multipole
end

set geometry tms
task dft optimize
property
  dipole
  mulliken
  shielding
end
task dft property
================================================================================


                                         
                                         


             Northwest Computational Chemistry Package (NWChem) 7.0.2
             --------------------------------------------------------


                    Environmental Molecular Sciences Laboratory
                       Pacific Northwest National Laboratory
                                Richland, WA 99352

                              Copyright (c) 1994-2020
                       Pacific Northwest National Laboratory
                            Battelle Memorial Institute

             NWChem is an open-source computational chemistry package
                        distributed under the terms of the
                      Educational Community License (ECL) 2.0
             A copy of the license is included with this distribution
                              in the LICENSE.TXT file

                                  ACKNOWLEDGMENT
                                  --------------

            This software and its documentation were developed at the
            EMSL at Pacific Northwest National Laboratory, a multiprogram
            national laboratory, operated for the U.S. Department of Energy
            by Battelle under Contract Number DE-AC05-76RL01830. Support
            for this work was provided by the Department of Energy Office
            of Biological and Environmental Research, Office of Basic
            Energy Sciences, and the Office of Advanced Scientific Computing.


           Job information
           ---------------

    hostname        = caffeine5-ThinkPad-E590
    program         = nwchem
    date            = Wed Jun 28 14:41:09 2023

    compiled        = Sat_Apr_09_17:12:10_2022
    source          = /build/nwchem-f1f4gx/nwchem-7.0.2/build-openmpi
    nwchem branch   = 7.0.2
    nwchem revision = N/A
    ga revision     = 5.8.1
    use scalapack   = T
    input           = TMS.nw
    prefix          = TMS.
    data base       = ./TMS.db
    status          = startup
    nproc           =        1
    time left       =     -1s



           Memory information
           ------------------

    heap     =   13107194 doubles =    100.0 Mbytes
    stack    =   13107199 doubles =    100.0 Mbytes
    global   =   26214400 doubles =    200.0 Mbytes (distinct from heap & stack)
    total    =   52428793 doubles =    400.0 Mbytes
    verify   = yes
    hardfail = no 


           Directory information
           ---------------------

  0 permanent = .
  0 scratch   = .




                                NWChem Input Module
                                -------------------


                              TMS NMR PBE0/def2-tzvpd
                              -----------------------

 Scaling coordinates for geometry "tms" by  1.889725989
 (inverse scale =  0.529177249)

 TD  symmetry detected

          ------
          auto-z
          ------
  no constraints, skipping    0.0000000000000000     
  no constraints, skipping    0.0000000000000000     


                               Geometry "tms" -> ""
                               --------------------

 Output coordinates in angstroms (scale by  1.889725989 to convert to a.u.)

  No.       Tag          Charge          X              Y              Z
 ---- ---------------- ---------- -------------- -------------- --------------
    1 Si                  14.0000     0.00000000     0.00000000     0.00000000
    2 C                    6.0000     1.08400099     1.08400099     1.08400099
    3 H                    1.0000     1.72826560     1.72826560     0.47927400
    4 H                    1.0000     1.72826560     0.47927400     1.72826560
    5 H                    1.0000     0.47927400     1.72826560     1.72826560
    6 C                    6.0000    -1.08400099    -1.08400099     1.08400099
    7 H                    1.0000    -1.72826560    -0.47927400     1.72826560
    8 H                    1.0000    -1.72826560    -1.72826560     0.47927400
    9 H                    1.0000    -0.47927400    -1.72826560     1.72826560
   10 C                    6.0000     1.08400099    -1.08400099    -1.08400099
   11 H                    1.0000     0.47927400    -1.72826560    -1.72826560
   12 H                    1.0000     1.72826560    -0.47927400    -1.72826560
   13 H                    1.0000     1.72826560    -1.72826560    -0.47927400
   14 C                    6.0000    -1.08400099     1.08400099    -1.08400099
   15 H                    1.0000    -1.72826560     0.47927400    -1.72826560
   16 H                    1.0000    -1.72826560     1.72826560    -0.47927400
   17 H                    1.0000    -0.47927400     1.72826560    -1.72826560

      Atomic Mass 
      ----------- 

      Si                27.976930
      C                 12.000000
      H                  1.007825


 Effective nuclear repulsion energy (a.u.)     246.2199486510

            Nuclear Dipole moment (a.u.) 
            ----------------------------
        X                 Y               Z
 ---------------- ---------------- ----------------
    -0.0000000000    -0.0000000000     0.0000000000

      Symmetry information
      --------------------

 Group name              Td       
 Group number             42
 Group order              24
 No. of unique centers     3

      Symmetry unique atoms

     1    2    3



                                Z-matrix (autoz)
                                -------- 

 Units are Angstrom for bonds and degrees for angles

      Type          Name      I     J     K     L     M      Value
      ----------- --------  ----- ----- ----- ----- ----- ----------
    1 Stretch                  1     2                       1.87754
    2 Stretch                  1     6                       1.87754
    3 Stretch                  1    10                       1.87754
    4 Stretch                  1    14                       1.87754
    5 Stretch                  2     3                       1.09355
    6 Stretch                  2     4                       1.09355
    7 Stretch                  2     5                       1.09355
    8 Stretch                  6     7                       1.09355
    9 Stretch                  6     8                       1.09355
   10 Stretch                  6     9                       1.09355
   11 Stretch                 10    11                       1.09355
   12 Stretch                 10    12                       1.09355
   13 Stretch                 10    13                       1.09355
   14 Stretch                 14    15                       1.09355
   15 Stretch                 14    16                       1.09355
   16 Stretch                 14    17                       1.09355
   17 Bend                     1     2     3               111.16288
   18 Bend                     1     2     4               111.16288
   19 Bend                     1     2     5               111.16288
   20 Bend                     1     6     7               111.16288
   21 Bend                     1     6     8               111.16288
   22 Bend                     1     6     9               111.16288
   23 Bend                     1    10    11               111.16288
   24 Bend                     1    10    12               111.16288
   25 Bend                     1    10    13               111.16288
   26 Bend                     1    14    15               111.16288
   27 Bend                     1    14    16               111.16288
   28 Bend                     1    14    17               111.16288
   29 Bend                     2     1     6               109.47122
   30 Bend                     2     1    10               109.47122
   31 Bend                     2     1    14               109.47122
   32 Bend                     3     2     4               107.72787
   33 Bend                     3     2     5               107.72787
   34 Bend                     4     2     5               107.72787
   35 Bend                     6     1    10               109.47122
   36 Bend                     6     1    14               109.47122
   37 Bend                     7     6     8               107.72787
   38 Bend                     7     6     9               107.72787
   39 Bend                     8     6     9               107.72787
   40 Bend                    10     1    14               109.47122
   41 Bend                    11    10    12               107.72787
   42 Bend                    11    10    13               107.72787
   43 Bend                    12    10    13               107.72787
   44 Bend                    15    14    16               107.72787
   45 Bend                    15    14    17               107.72787
   46 Bend                    16    14    17               107.72787
   47 Torsion                  2     1     6     7          60.00000
   48 Torsion                  2     1     6     8         180.00000
   49 Torsion                  2     1     6     9         -60.00000
   50 Torsion                  2     1    10    11         180.00000
   51 Torsion                  2     1    10    12         -60.00000
   52 Torsion                  2     1    10    13          60.00000
   53 Torsion                  2     1    14    15         180.00000
   54 Torsion                  2     1    14    16         -60.00000
   55 Torsion                  2     1    14    17          60.00000
   56 Torsion                  3     2     1     6         180.00000
   57 Torsion                  3     2     1    10          60.00000
   58 Torsion                  3     2     1    14         -60.00000
   59 Torsion                  4     2     1     6          60.00000
   60 Torsion                  4     2     1    10         -60.00000
   61 Torsion                  4     2     1    14         180.00000
   62 Torsion                  5     2     1     6         -60.00000
   63 Torsion                  5     2     1    10         180.00000
   64 Torsion                  5     2     1    14          60.00000
   65 Torsion                  6     1    10    11          60.00000
   66 Torsion                  6     1    10    12         180.00000
   67 Torsion                  6     1    10    13         -60.00000
   68 Torsion                  6     1    14    15         -60.00000
   69 Torsion                  6     1    14    16          60.00000
   70 Torsion                  6     1    14    17         180.00000
   71 Torsion                  7     6     1    10         180.00000
   72 Torsion                  7     6     1    14         -60.00000
   73 Torsion                  8     6     1    10         -60.00000
   74 Torsion                  8     6     1    14          60.00000
   75 Torsion                  9     6     1    10          60.00000
   76 Torsion                  9     6     1    14         180.00000
   77 Torsion                 10     1    14    15          60.00000
   78 Torsion                 10     1    14    16         180.00000
   79 Torsion                 10     1    14    17         -60.00000
   80 Torsion                 11    10     1    14         -60.00000
   81 Torsion                 12    10     1    14          60.00000
   82 Torsion                 13    10     1    14         180.00000


            XYZ format geometry
            -------------------
    17
 tms
 Si                    0.00000000     0.00000000     0.00000000
 C                     1.08400099     1.08400099     1.08400099
 H                     1.72826560     1.72826560     0.47927400
 H                     1.72826560     0.47927400     1.72826560
 H                     0.47927400     1.72826560     1.72826560
 C                    -1.08400099    -1.08400099     1.08400099
 H                    -1.72826560    -0.47927400     1.72826560
 H                    -1.72826560    -1.72826560     0.47927400
 H                    -0.47927400    -1.72826560     1.72826560
 C                     1.08400099    -1.08400099    -1.08400099
 H                     0.47927400    -1.72826560    -1.72826560
 H                     1.72826560    -0.47927400    -1.72826560
 H                     1.72826560    -1.72826560    -0.47927400
 C                    -1.08400099     1.08400099    -1.08400099
 H                    -1.72826560     0.47927400    -1.72826560
 H                    -1.72826560     1.72826560    -0.47927400
 H                    -0.47927400     1.72826560    -1.72826560

 ==============================================================================
                                internuclear distances
 ------------------------------------------------------------------------------
       center one      |      center two      | atomic units |  angstroms
 ------------------------------------------------------------------------------
    2 C                |   1 Si               |     3.54805  |     1.87754
    3 H                |   2 C                |     2.06651  |     1.09355
    4 H                |   2 C                |     2.06651  |     1.09355
    5 H                |   2 C                |     2.06651  |     1.09355
    6 C                |   1 Si               |     3.54805  |     1.87754
    7 H                |   6 C                |     2.06651  |     1.09355
    8 H                |   6 C                |     2.06651  |     1.09355
    9 H                |   6 C                |     2.06651  |     1.09355
   10 C                |   1 Si               |     3.54805  |     1.87754
   11 H                |  10 C                |     2.06651  |     1.09355
   12 H                |  10 C                |     2.06651  |     1.09355
   13 H                |  10 C                |     2.06651  |     1.09355
   14 C                |   1 Si               |     3.54805  |     1.87754
   15 H                |  14 C                |     2.06651  |     1.09355
   16 H                |  14 C                |     2.06651  |     1.09355
   17 H                |  14 C                |     2.06651  |     1.09355
 ------------------------------------------------------------------------------
                         number of included internuclear distances:         16
 ==============================================================================



 ==============================================================================
                                 internuclear angles
 ------------------------------------------------------------------------------
        center 1       |       center 2       |       center 3       |  degrees
 ------------------------------------------------------------------------------
    2 C                |   1 Si               |   6 C                |   109.47
    2 C                |   1 Si               |  10 C                |   109.47
    2 C                |   1 Si               |  14 C                |   109.47
    6 C                |   1 Si               |  10 C                |   109.47
    6 C                |   1 Si               |  14 C                |   109.47
   10 C                |   1 Si               |  14 C                |   109.47
    1 Si               |   2 C                |   3 H                |   111.16
    1 Si               |   2 C                |   4 H                |   111.16
    1 Si               |   2 C                |   5 H                |   111.16
    3 H                |   2 C                |   4 H                |   107.73
    3 H                |   2 C                |   5 H                |   107.73
    4 H                |   2 C                |   5 H                |   107.73
    1 Si               |   6 C                |   7 H                |   111.16
    1 Si               |   6 C                |   8 H                |   111.16
    1 Si               |   6 C                |   9 H                |   111.16
    7 H                |   6 C                |   8 H                |   107.73
    7 H                |   6 C                |   9 H                |   107.73
    8 H                |   6 C                |   9 H                |   107.73
    1 Si               |  10 C                |  11 H                |   111.16
    1 Si               |  10 C                |  12 H                |   111.16
    1 Si               |  10 C                |  13 H                |   111.16
   11 H                |  10 C                |  12 H                |   107.73
   11 H                |  10 C                |  13 H                |   107.73
   12 H                |  10 C                |  13 H                |   107.73
    1 Si               |  14 C                |  15 H                |   111.16
    1 Si               |  14 C                |  16 H                |   111.16
    1 Si               |  14 C                |  17 H                |   111.16
   15 H                |  14 C                |  16 H                |   107.73
   15 H                |  14 C                |  17 H                |   107.73
   16 H                |  14 C                |  17 H                |   107.73
 ------------------------------------------------------------------------------
                            number of included internuclear angles:         30
 ==============================================================================





 Summary of "ao basis" -> "" (spherical)
 ------------------------------------------------------------------------------
       Tag                 Description            Shells   Functions and Types
 ---------------- ------------------------------  ------  ---------------------
 *                           6-311G                   on all atoms 




                           NWChem Geometry Optimization
                           ----------------------------




                              TMS NMR PBE0/def2-tzvpd


  no constraints, skipping    0.0000000000000000     
 maximum gradient threshold         (gmax) =   0.000450
 rms gradient threshold             (grms) =   0.000300
 maximum cartesian step threshold   (xmax) =   0.001800
 rms cartesian step threshold       (xrms) =   0.001200
 fixed trust radius                (trust) =   0.300000
 maximum step size to saddle      (sadstp) =   0.100000
 energy precision                  (eprec) =   5.0D-06
 maximum number of steps          (nptopt) =   20
 initial hessian option           (inhess) =    0
 line search option               (linopt) =    1
 hessian update option            (modupd) =    1
 saddle point option              (modsad) =    0
 initial eigen-mode to follow     (moddir) =    0
 initial variable to follow       (vardir) =    0
 follow first negative mode     (firstneg) =    T
 apply conjugacy                    (opcg) =    F
 source of zmatrix                         =   autoz   


          -------------------
          Energy Minimization
          -------------------


 Names of Z-matrix variables 
    1              2              3              4              5         
    6              7              8              9             10         
   11             12             13             14             15         
   16             17             18             19             20         
   21             22             23             24             25         
   26             27             28             29             30         
   31             32             33             34             35         
   36             37             38             39             40         
   41             42             43             44             45         
   46             47             48             49             50         
   51             52             53             54             55         
   56             57             58             59             60         
   61             62             63             64             65         
   66             67             68             69             70         
   71             72             73             74             75         
   76             77             78             79             80         
   81             82         

 Variables with the same non-blank name are constrained to be equal


 Using diagonal initial Hessian 
 Scaling for Hessian diagonals: bonds = 1.00  angles = 0.25  torsions = 0.10

          --------
          Step   0
          --------


                           Geometry "geometry" -> "tms"
                           ----------------------------

 Output coordinates in angstroms (scale by  1.889725989 to convert to a.u.)

  No.       Tag          Charge          X              Y              Z
 ---- ---------------- ---------- -------------- -------------- --------------
    1 Si                  14.0000     0.00000000     0.00000000     0.00000000
    2 C                    6.0000     1.08400099     1.08400099     1.08400099
    3 H                    1.0000     1.72826560     1.72826560     0.47927400
    4 H                    1.0000     1.72826560     0.47927400     1.72826560
    5 H                    1.0000     0.47927400     1.72826560     1.72826560
    6 C                    6.0000    -1.08400099    -1.08400099     1.08400099
    7 H                    1.0000    -1.72826560    -0.47927400     1.72826560
    8 H                    1.0000    -1.72826560    -1.72826560     0.47927400
    9 H                    1.0000    -0.47927400    -1.72826560     1.72826560
   10 C                    6.0000     1.08400099    -1.08400099    -1.08400099
   11 H                    1.0000     0.47927400    -1.72826560    -1.72826560
   12 H                    1.0000     1.72826560    -0.47927400    -1.72826560
   13 H                    1.0000     1.72826560    -1.72826560    -0.47927400
   14 C                    6.0000    -1.08400099     1.08400099    -1.08400099
   15 H                    1.0000    -1.72826560     0.47927400    -1.72826560
   16 H                    1.0000    -1.72826560     1.72826560    -0.47927400
   17 H                    1.0000    -0.47927400     1.72826560    -1.72826560

      Atomic Mass 
      ----------- 

      Si                27.976930
      C                 12.000000
      H                  1.007825


 Effective nuclear repulsion energy (a.u.)     246.2199486510

            Nuclear Dipole moment (a.u.) 
            ----------------------------
        X                 Y               Z
 ---------------- ---------------- ----------------
    -0.0000000000    -0.0000000000     0.0000000000

      Symmetry information
      --------------------

 Group name              Td       
 Group number             42
 Group order              24
 No. of unique centers     3

      Symmetry unique atoms

     1    2    3


                                 NWChem DFT Module
                                 -----------------


                              TMS NMR PBE0/def2-tzvpd


                      Basis "ao basis" -> "ao basis" (spherical)
                      -----
  Si (Silicon)
  ------------
            Exponent  Coefficients 
       -------------- ---------------------------------------------------------
  1 S  6.93792300E+04  0.000757
  1 S  1.03549400E+04  0.005932
  1 S  2.33387960E+03  0.031088
  1 S  6.57142950E+02  0.124967
  1 S  2.14301130E+02  0.386897
  1 S  7.76291680E+01  0.554888

  2 S  7.76291680E+01  0.177881
  2 S  3.06308070E+01  0.627765
  2 S  1.28012950E+01  0.247623

  3 S  3.92686600E+00  1.000000

  4 S  1.45234300E+00  1.000000

  5 S  2.56234000E-01  1.000000

  6 S  9.42790000E-02  1.000000

  7 P  3.35483190E+02  0.008866
  7 P  7.89003660E+01  0.068299
  7 P  2.49881500E+01  0.290958
  7 P  9.21971100E+00  0.732117

  8 P  3.62114000E+00  0.619879
  8 P  1.45131000E+00  0.439148

  9 P  5.04977000E-01  1.000000

 10 P  1.86317000E-01  1.000000

 11 P  6.54320000E-02  1.000000

  C (Carbon)
  ----------
            Exponent  Coefficients 
       -------------- ---------------------------------------------------------
  1 S  4.56324000E+03  0.001967
  1 S  6.82024000E+02  0.015231
  1 S  1.54973000E+02  0.076127
  1 S  4.44553000E+01  0.260801
  1 S  1.30290000E+01  0.616462
  1 S  1.82773000E+00  0.221006

  2 S  2.09642000E+01  0.114660
  2 S  4.80331000E+00  0.919999
  2 S  1.45933000E+00 -0.003031

  3 P  2.09642000E+01  0.040249
  3 P  4.80331000E+00  0.237594
  3 P  1.45933000E+00  0.815854

  4 S  4.83456000E-01  1.000000

  5 P  4.83456000E-01  1.000000

  6 S  1.45585000E-01  1.000000

  7 P  1.45585000E-01  1.000000

  H (Hydrogen)
  ------------
            Exponent  Coefficients 
       -------------- ---------------------------------------------------------
  1 S  3.38650000E+01  0.025494
  1 S  5.09479000E+00  0.190373
  1 S  1.15879000E+00  0.852161

  2 S  3.25840000E-01  1.000000

  3 S  1.02741000E-01  1.000000



 Summary of "ao basis" -> "ao basis" (spherical)
 ------------------------------------------------------------------------------
       Tag                 Description            Shells   Functions and Types
 ---------------- ------------------------------  ------  ---------------------
 Si                          6-311G                 11       21   6s5p
 C                           6-311G                  7       13   4s3p
 H                           6-311G                  3        3   3s




 Summary of "ao basis" -> "ao basis" (spherical)
 ------------------------------------------------------------------------------
       Tag                 Description            Shells   Functions and Types
 ---------------- ------------------------------  ------  ---------------------
 Si                          6-311G                 11       21   6s5p
 C                           6-311G                  7       13   4s3p
 H                           6-311G                  3        3   3s


      Symmetry analysis of basis
      --------------------------

        a1         16
        a2          0
        e          12
        t1         18
        t2         63

  Caching 1-el integrals 

            General Information
            -------------------
          SCF calculation type: DFT
          Wavefunction type:  closed shell.
          No. of atoms     :    17
          No. of electrons :    50
           Alpha electrons :    25
            Beta electrons :    25
          Charge           :     0
          Spin multiplicity:     1
          Use of symmetry is: on ; symmetry adaption is: on 
          Maximum number of iterations:  30
          This is a Direct SCF calculation.
          AO basis - number of functions:   109
                     number of shells:    75
          Convergence on energy requested:  1.00D-06
          Convergence on density requested:  1.00D-05
          Convergence on gradient requested:  5.00D-04

              XC Information
              --------------
                         PBE0 Method XC Functional
                     Hartree-Fock (Exact) Exchange  0.250          
          PerdewBurkeErnzerhof Exchange Functional  0.750          
            Perdew 1991 LDA Correlation Functional  1.000 local    
           PerdewBurkeErnz. Correlation Functional  1.000 non-local

             Grid Information
             ----------------
          Grid used for XC integration:  medium    
          Radial quadrature: Mura-Knowles        
          Angular quadrature: Lebedev. 
          Tag              B.-S. Rad. Rad. Pts. Rad. Cut. Ang. Pts.
          ---              ---------- --------- --------- ---------
          Si                  1.10       88           9.0       590
          C                   0.70       49          11.0       434
          H                   0.35       45          12.0       434
          Grid pruning is: on 
          Number of quadrature shells:   182
          Spatial weights used:  Erf1

          Convergence Information
          -----------------------
          Convergence aids based upon iterative change in 
          total energy or number of iterations. 
          Levelshifting, if invoked, occurs when the 
          HOMO/LUMO gap drops below (HL_TOL):  1.00D-02
          DIIS, if invoked, will attempt to extrapolate 
          using up to (NFOCK): 10 stored Fock matrices.

                    Damping( 0%)  Levelshifting(0.5)       DIIS
                  --------------- ------------------- ---------------
          dE  on:    start            ASAP                start   
          dE off:    2 iters         30 iters            30 iters 


      Screening Tolerance Information
      -------------------------------
          Density screening/tol_rho:  1.00D-10
          AO Gaussian exp screening on grid/accAOfunc:  14
          CD Gaussian exp screening on grid/accCDfunc:  20
          XC Gaussian exp screening on grid/accXCfunc:  20
          Schwarz screening/accCoul:  1.00D-08


      Superposition of Atomic Density Guess
      -------------------------------------

 Sum of atomic energies:        -445.50851803

      Non-variational initial energy
      ------------------------------

 Total energy =    -448.805989
 1-e energy   =   -1096.660770
 2-e energy   =     401.634833
 HOMO         =      -0.367778
 LUMO         =       0.052816


      Symmetry analysis of molecular orbitals - initial
      -------------------------------------------------

  Numbering of irreducible representations: 

     1 a1          2 a2          3 e           4 t1          5 t2      

  Orbital symmetries:

     1 a1          2 a1          3 t2          4 t2          5 t2      
     6 a1          7 t2          8 t2          9 t2         10 a1      
    11 t2         12 t2         13 t2         14 a1         15 t2      
    16 t2         17 t2         18 e          19 e          20 t1      
    21 t1         22 t1         23 t2         24 t2         25 t2      
    26 a1         27 t2         28 t2         29 t2         30 t2      
    31 t2         32 t2         33 e          34 e          35 t1      

   Time after variat. SCF:      0.8
   Time prior to 1st pass:      0.8

 Grid_pts file          = ./TMS.gridpts.0
 Record size in doubles =  12289        No. of grid_pts per rec  =   3070
 Max. records in memory =     40        Max. recs in file   =   4199459

 Grid integrated density:      50.000151820959
 Requested integration accuracy:   0.10E-05

           Memory utilization after 1st SCF pass: 
           Heap Space remaining (MW):       12.56            12556354
          Stack Space remaining (MW):       13.11            13106084

   convergence    iter        energy       DeltaE   RMS-Dens  Diis-err    time
 ---------------- ----- ----------------- --------- --------- ---------  ------
 d= 0,ls=0.0,diis     1   -448.7885590285 -6.95D+02  4.90D-03  6.29D-01     1.6
 Grid integrated density:      50.000149217869
 Requested integration accuracy:   0.10E-05
 d= 0,ls=0.0,diis     2   -448.8236187061 -3.51D-02  2.20D-03  7.50D-02     2.4
 Grid integrated density:      50.000141612301
 Requested integration accuracy:   0.10E-05
 d= 0,ls=0.0,diis     3   -448.8274489718 -3.83D-03  9.97D-04  4.31D-02     3.2
 Grid integrated density:      50.000144616252
 Requested integration accuracy:   0.10E-05
 d= 0,ls=0.0,diis     4   -448.8326681287 -5.22D-03  5.14D-05  3.50D-05     3.9
 Grid integrated density:      50.000144558091
 Requested integration accuracy:   0.10E-05
 d= 0,ls=0.0,diis     5   -448.8326706190 -2.49D-06  1.93D-05  5.17D-06     4.7
 Grid integrated density:      50.000144544373
 Requested integration accuracy:   0.10E-05
 d= 0,ls=0.0,diis     6   -448.8326710933 -4.74D-07  2.34D-06  2.23D-08     5.5


         Total DFT energy =     -448.832671093346
      One electron energy =    -1103.271574918390
           Coulomb energy =      455.053503940527
    Exchange-Corr. energy =      -46.834548766457
 Nuclear repulsion energy =      246.219948650974

 Numeric. integr. density =       50.000144544373

     Total iterative time =      4.7s



                  Occupations of the irreducible representations
                  ----------------------------------------------

                     irrep           alpha         beta
                     --------     --------     --------
                     a1                5.0          5.0
                     a2                0.0          0.0
                     e                 2.0          2.0
                     t1                3.0          3.0
                     t2               15.0         15.0


 center of mass
 --------------
 x =   0.00000000 y =  -0.00000000 z =  -0.00000000

 moments of inertia (a.u.)
 ------------------
         581.447768763410          -0.000000000000          -0.000000000000
          -0.000000000000         581.447768763410          -0.000000000000
          -0.000000000000          -0.000000000000         581.447768763410

            General Information
            -------------------
          SCF calculation type: DFT
          Wavefunction type:  closed shell.
          No. of atoms     :    17
          No. of electrons :    50
           Alpha electrons :    25
            Beta electrons :    25
          Charge           :     0
          Spin multiplicity:     1
          Use of symmetry is: on ; symmetry adaption is: on 
          Maximum number of iterations:  30
          This is a Direct SCF calculation.
          AO basis - number of functions:   109
                     number of shells:    75
          Convergence on energy requested:  1.00D-06
          Convergence on density requested:  1.00D-05
          Convergence on gradient requested:  5.00D-04

              XC Information
              --------------
                         PBE0 Method XC Functional
                     Hartree-Fock (Exact) Exchange  0.250          
          PerdewBurkeErnzerhof Exchange Functional  0.750          
            Perdew 1991 LDA Correlation Functional  1.000 local    
           PerdewBurkeErnz. Correlation Functional  1.000 non-local

             Grid Information
             ----------------
          Grid used for XC integration:  medium    
          Radial quadrature: Mura-Knowles        
          Angular quadrature: Lebedev. 
          Tag              B.-S. Rad. Rad. Pts. Rad. Cut. Ang. Pts.
          ---              ---------- --------- --------- ---------
          Si                  1.10       88           9.0       590
          C                   0.70       49          11.0       434
          H                   0.35       45          12.0       434
          Grid pruning is: on 
          Number of quadrature shells:   182
          Spatial weights used:  Erf1

          Convergence Information
          -----------------------
          Convergence aids based upon iterative change in 
          total energy or number of iterations. 
          Levelshifting, if invoked, occurs when the 
          HOMO/LUMO gap drops below (HL_TOL):  1.00D-02
          DIIS, if invoked, will attempt to extrapolate 
          using up to (NFOCK): 10 stored Fock matrices.

                    Damping( 0%)  Levelshifting(0.5)       DIIS
                  --------------- ------------------- ---------------
          dE  on:    start            ASAP                start   
          dE off:    2 iters         30 iters            30 iters 


      Screening Tolerance Information
      -------------------------------
          Density screening/tol_rho:  1.00D-10
          AO Gaussian exp screening on grid/accAOfunc:  14
          CD Gaussian exp screening on grid/accCDfunc:  20
          XC Gaussian exp screening on grid/accXCfunc:  20
          Schwarz screening/accCoul:  1.00D-08



                            NWChem DFT Gradient Module
                            --------------------------


                              TMS NMR PBE0/def2-tzvpd



  charge          =   0.00
  wavefunction    = closed shell

  Using symmetry


                         DFT ENERGY GRADIENTS

    atom               coordinates                        gradient
                 x          y          z           x          y          z
   1 Si      0.000000   0.000000   0.000000    0.000000   0.000000   0.000000
   2 C       2.048465   2.048465   2.048465   -0.005396  -0.005396  -0.005396
   3 H       3.265948   3.265948   0.905697    0.000433   0.000433  -0.000460
   4 H       3.265948   0.905697   3.265948    0.000433  -0.000460   0.000433
   5 H       0.905697   3.265948   3.265948   -0.000460   0.000433   0.000433
   6 C      -2.048465  -2.048465   2.048465    0.005396   0.005396  -0.005396
   7 H      -3.265948  -0.905697   3.265948   -0.000433   0.000460   0.000433
   8 H      -3.265948  -3.265948   0.905697   -0.000433  -0.000433  -0.000460
   9 H      -0.905697  -3.265948   3.265948    0.000460  -0.000433   0.000433
  10 C       2.048465  -2.048465  -2.048465   -0.005396   0.005396   0.005396
  11 H       0.905697  -3.265948  -3.265948   -0.000460  -0.000433  -0.000433
  12 H       3.265948  -0.905697  -3.265948    0.000433   0.000460  -0.000433
  13 H       3.265948  -3.265948  -0.905697    0.000433  -0.000433   0.000460
  14 C      -2.048465   2.048465  -2.048465    0.005396  -0.005396   0.005396
  15 H      -3.265948   0.905697  -3.265948   -0.000433  -0.000460  -0.000433
  16 H      -3.265948   3.265948  -0.905697   -0.000433   0.000433   0.000460
  17 H      -0.905697   3.265948  -3.265948    0.000460   0.000433  -0.000433

                 ----------------------------------------
                 |  Time  |  1-e(secs)   |  2-e(secs)   |
                 ----------------------------------------
                 |  CPU   |       0.02   |       3.24   |
                 ----------------------------------------
                 |  WALL  |       0.01   |       3.13   |
                 ----------------------------------------
  no constraints, skipping    0.0000000000000000     

@ Step       Energy      Delta E   Gmax     Grms     Xrms     Xmax   Walltime
@ ---- ---------------- -------- -------- -------- -------- -------- --------
@    0    -448.83267109  0.0D+00  0.00864  0.00193  0.00000  0.00000      9.1
                                                                    



                                Z-matrix (autoz)
                                -------- 

 Units are Angstrom for bonds and degrees for angles

      Type          Name      I     J     K     L     M      Value     Gradient
      ----------- --------  ----- ----- ----- ----- ----- ---------- ----------
    1 Stretch                  1     2                       1.87754   -0.00864
    2 Stretch                  1     6                       1.87754   -0.00864
    3 Stretch                  1    10                       1.87754   -0.00864
    4 Stretch                  1    14                       1.87754   -0.00864
    5 Stretch                  2     3                       1.09355    0.00076
    6 Stretch                  2     4                       1.09355    0.00076
    7 Stretch                  2     5                       1.09355    0.00076
    8 Stretch                  6     7                       1.09355    0.00076
    9 Stretch                  6     8                       1.09355    0.00076
   10 Stretch                  6     9                       1.09355    0.00076
   11 Stretch                 10    11                       1.09355    0.00076
   12 Stretch                 10    12                       1.09355    0.00076
   13 Stretch                 10    13                       1.09355    0.00076
   14 Stretch                 14    15                       1.09355    0.00076
   15 Stretch                 14    16                       1.09355    0.00076
   16 Stretch                 14    17                       1.09355    0.00076
   17 Bend                     1     2     3               111.16288   -0.00002
   18 Bend                     1     2     4               111.16288   -0.00002
   19 Bend                     1     2     5               111.16288   -0.00002
   20 Bend                     1     6     7               111.16288   -0.00002
   21 Bend                     1     6     8               111.16288   -0.00002
   22 Bend                     1     6     9               111.16288   -0.00002
   23 Bend                     1    10    11               111.16288   -0.00002
   24 Bend                     1    10    12               111.16288   -0.00002
   25 Bend                     1    10    13               111.16288   -0.00002
   26 Bend                     1    14    15               111.16288   -0.00002
   27 Bend                     1    14    16               111.16288   -0.00002
   28 Bend                     1    14    17               111.16288   -0.00002
   29 Bend                     2     1     6               109.47122   -0.00000
   30 Bend                     2     1    10               109.47122    0.00000
   31 Bend                     2     1    14               109.47122    0.00000
   32 Bend                     3     2     4               107.72787    0.00002
   33 Bend                     3     2     5               107.72787    0.00002
   34 Bend                     4     2     5               107.72787    0.00002
   35 Bend                     6     1    10               109.47122    0.00000
   36 Bend                     6     1    14               109.47122    0.00000
   37 Bend                     7     6     8               107.72787    0.00002
   38 Bend                     7     6     9               107.72787    0.00002
   39 Bend                     8     6     9               107.72787    0.00002
   40 Bend                    10     1    14               109.47122   -0.00000
   41 Bend                    11    10    12               107.72787    0.00002
   42 Bend                    11    10    13               107.72787    0.00002
   43 Bend                    12    10    13               107.72787    0.00002
   44 Bend                    15    14    16               107.72787    0.00002
   45 Bend                    15    14    17               107.72787    0.00002
   46 Bend                    16    14    17               107.72787    0.00002
   47 Torsion                  2     1     6     7          60.00000    0.00000
   48 Torsion                  2     1     6     8         180.00000    0.00000
   49 Torsion                  2     1     6     9         -60.00000    0.00000
   50 Torsion                  2     1    10    11         180.00000    0.00000
   51 Torsion                  2     1    10    12         -60.00000    0.00000
   52 Torsion                  2     1    10    13          60.00000    0.00000
   53 Torsion                  2     1    14    15         180.00000    0.00000
   54 Torsion                  2     1    14    16         -60.00000    0.00000
   55 Torsion                  2     1    14    17          60.00000    0.00000
   56 Torsion                  3     2     1     6         180.00000    0.00000
   57 Torsion                  3     2     1    10          60.00000   -0.00000
   58 Torsion                  3     2     1    14         -60.00000    0.00000
   59 Torsion                  4     2     1     6          60.00000   -0.00000
   60 Torsion                  4     2     1    10         -60.00000   -0.00000
   61 Torsion                  4     2     1    14         180.00000   -0.00000
   62 Torsion                  5     2     1     6         -60.00000   -0.00000
   63 Torsion                  5     2     1    10         180.00000    0.00000
   64 Torsion                  5     2     1    14          60.00000    0.00000
   65 Torsion                  6     1    10    11          60.00000    0.00000
   66 Torsion                  6     1    10    12         180.00000    0.00000
   67 Torsion                  6     1    10    13         -60.00000    0.00000
   68 Torsion                  6     1    14    15         -60.00000   -0.00000
   69 Torsion                  6     1    14    16          60.00000    0.00000
   70 Torsion                  6     1    14    17         180.00000    0.00000
   71 Torsion                  7     6     1    10         180.00000    0.00000
   72 Torsion                  7     6     1    14         -60.00000    0.00000
   73 Torsion                  8     6     1    10         -60.00000    0.00000
   74 Torsion                  8     6     1    14          60.00000    0.00000
   75 Torsion                  9     6     1    10          60.00000    0.00000
   76 Torsion                  9     6     1    14         180.00000    0.00000
   77 Torsion                 10     1    14    15          60.00000    0.00000
   78 Torsion                 10     1    14    16         180.00000    0.00000
   79 Torsion                 10     1    14    17         -60.00000    0.00000
   80 Torsion                 11    10     1    14         -60.00000    0.00000
   81 Torsion                 12    10     1    14          60.00000    0.00000
   82 Torsion                 13    10     1    14         180.00000    0.00000

  no constraints, skipping    0.0000000000000000     
  no constraints, skipping    0.0000000000000000     
  no constraints, skipping    0.0000000000000000     

                                 NWChem DFT Module
                                 -----------------


                              TMS NMR PBE0/def2-tzvpd




 Summary of "ao basis" -> "ao basis" (spherical)
 ------------------------------------------------------------------------------
       Tag                 Description            Shells   Functions and Types
 ---------------- ------------------------------  ------  ---------------------
 Si                          6-311G                 11       21   6s5p
 C                           6-311G                  7       13   4s3p
 H                           6-311G                  3        3   3s


      Symmetry analysis of basis
      --------------------------

        a1         16
        a2          0
        e          12
        t1         18
        t2         63

  Caching 1-el integrals 

            General Information
            -------------------
          SCF calculation type: DFT
          Wavefunction type:  closed shell.
          No. of atoms     :    17
          No. of electrons :    50
           Alpha electrons :    25
            Beta electrons :    25
          Charge           :     0
          Spin multiplicity:     1
          Use of symmetry is: on ; symmetry adaption is: on 
          Maximum number of iterations:  30
          This is a Direct SCF calculation.
          AO basis - number of functions:   109
                     number of shells:    75
          Convergence on energy requested:  1.00D-06
          Convergence on density requested:  1.00D-05
          Convergence on gradient requested:  5.00D-04

              XC Information
              --------------
                         PBE0 Method XC Functional
                     Hartree-Fock (Exact) Exchange  0.250          
          PerdewBurkeErnzerhof Exchange Functional  0.750          
            Perdew 1991 LDA Correlation Functional  1.000 local    
           PerdewBurkeErnz. Correlation Functional  1.000 non-local

             Grid Information
             ----------------
          Grid used for XC integration:  medium    
          Radial quadrature: Mura-Knowles        
          Angular quadrature: Lebedev. 
          Tag              B.-S. Rad. Rad. Pts. Rad. Cut. Ang. Pts.
          ---              ---------- --------- --------- ---------
          Si                  1.10       88           9.0       590
          C                   0.70       49          11.0       434
          H                   0.35       45          12.0       434
          Grid pruning is: on 
          Number of quadrature shells:   182
          Spatial weights used:  Erf1

          Convergence Information
          -----------------------
          Convergence aids based upon iterative change in 
          total energy or number of iterations. 
          Levelshifting, if invoked, occurs when the 
          HOMO/LUMO gap drops below (HL_TOL):  1.00D-02
          DIIS, if invoked, will attempt to extrapolate 
          using up to (NFOCK): 10 stored Fock matrices.

                    Damping( 0%)  Levelshifting(0.5)       DIIS
                  --------------- ------------------- ---------------
          dE  on:    start            ASAP                start   
          dE off:    2 iters         30 iters            30 iters 


      Screening Tolerance Information
      -------------------------------
          Density screening/tol_rho:  1.00D-10
          AO Gaussian exp screening on grid/accAOfunc:  14
          CD Gaussian exp screening on grid/accCDfunc:  20
          XC Gaussian exp screening on grid/accXCfunc:  20
          Schwarz screening/accCoul:  1.00D-08


 Loading old vectors from job with title :

TMS NMR PBE0/def2-tzvpd


      Symmetry analysis of molecular orbitals - initial
      -------------------------------------------------

  Numbering of irreducible representations: 

     1 a1          2 a2          3 e           4 t1          5 t2      

  Orbital symmetries:

     1 a1          2 t2          3 t2          4 t2          5 a1      
     6 a1          7 t2          8 t2          9 t2         10 a1      
    11 t2         12 t2         13 t2         14 a1         15 t2      
    16 t2         17 t2         18 e          19 e          20 t1      
    21 t1         22 t1         23 t2         24 t2         25 t2      
    26 a1         27 t2         28 t2         29 t2         30 t2      
    31 t2         32 t2         33 e          34 e          35 t1      

   Time after variat. SCF:      9.4
   Time prior to 1st pass:      9.4

 Grid_pts file          = ./TMS.gridpts.0
 Record size in doubles =  12289        No. of grid_pts per rec  =   3070
 Max. records in memory =     40        Max. recs in file   =   4199459

 Grid integrated density:      50.000171021612
 Requested integration accuracy:   0.10E-05

           Memory utilization after 1st SCF pass: 
           Heap Space remaining (MW):       12.56            12556354
          Stack Space remaining (MW):       13.11            13106084

   convergence    iter        energy       DeltaE   RMS-Dens  Diis-err    time
 ---------------- ----- ----------------- --------- --------- ---------  ------
 d= 0,ls=0.0,diis     1   -448.8331741388 -6.94D+02  2.53D-04  2.91D-04    10.4
 Grid integrated density:      50.000171786479
 Requested integration accuracy:   0.10E-05
 d= 0,ls=0.0,diis     2   -448.8332307694 -5.66D-05  3.78D-05  1.64D-05    11.2
 Grid integrated density:      50.000171825569
 Requested integration accuracy:   0.10E-05
 d= 0,ls=0.0,diis     3   -448.8332314213 -6.52D-07  1.83D-05  7.41D-06    12.0
 Grid integrated density:      50.000171891266
 Requested integration accuracy:   0.10E-05
 d= 0,ls=0.0,diis     4   -448.8332322561 -8.35D-07  3.31D-06  4.26D-07    12.8


         Total DFT energy =     -448.833232256115
      One electron energy =    -1101.105720972928
           Coulomb energy =      453.952536145675
    Exchange-Corr. energy =      -46.824832675199
 Nuclear repulsion energy =      245.144785246337

 Numeric. integr. density =       50.000171891266

     Total iterative time =      3.4s



                  Occupations of the irreducible representations
                  ----------------------------------------------

                     irrep           alpha         beta
                     --------     --------     --------
                     a1                5.0          5.0
                     a2                0.0          0.0
                     e                 2.0          2.0
                     t1                3.0          3.0
                     t2               15.0         15.0


 center of mass
 --------------
 x =  -0.00000000 y =   0.00000000 z =  -0.00000000

 moments of inertia (a.u.)
 ------------------
         587.670328614399          -0.000000000000          -0.000000000000
          -0.000000000000         587.670328614399           0.000000000000
          -0.000000000000           0.000000000000         587.670328614399
 Line search: 
     step= 1.00 grad=-7.6D-04 hess= 1.9D-04 energy=   -448.833232 mode=downhill
 new step= 1.94                   predicted energy=   -448.833405
  no constraints, skipping    0.0000000000000000     
  no constraints, skipping    0.0000000000000000     
  no constraints, skipping    0.0000000000000000     
  no constraints, skipping    0.0000000000000000     

          --------
          Step   1
          --------


                           Geometry "geometry" -> "tms"
                           ----------------------------

 Output coordinates in angstroms (scale by  1.889725989 to convert to a.u.)

  No.       Tag          Charge          X              Y              Z
 ---- ---------------- ---------- -------------- -------------- --------------
    1 Si                  14.0000     0.00000000     0.00000000     0.00000000
    2 C                    6.0000     1.09661268     1.09661268     1.09661268
    3 H                    1.0000     1.73971607     1.73971607     0.49354155
    4 H                    1.0000     1.73971607     0.49354155     1.73971607
    5 H                    1.0000     0.49354155     1.73971607     1.73971607
    6 C                    6.0000    -1.09661268    -1.09661268     1.09661268
    7 H                    1.0000    -1.73971607    -0.49354155     1.73971607
    8 H                    1.0000    -1.73971607    -1.73971607     0.49354155
    9 H                    1.0000    -0.49354155    -1.73971607     1.73971607
   10 C                    6.0000     1.09661268    -1.09661268    -1.09661268
   11 H                    1.0000     0.49354155    -1.73971607    -1.73971607
   12 H                    1.0000     1.73971607    -0.49354155    -1.73971607
   13 H                    1.0000     1.73971607    -1.73971607    -0.49354155
   14 C                    6.0000    -1.09661268     1.09661268    -1.09661268
   15 H                    1.0000    -1.73971607     0.49354155    -1.73971607
   16 H                    1.0000    -1.73971607     1.73971607    -0.49354155
   17 H                    1.0000    -0.49354155     1.73971607    -1.73971607

      Atomic Mass 
      ----------- 

      Si                27.976930
      C                 12.000000
      H                  1.007825


 Effective nuclear repulsion energy (a.u.)     244.1434608010

            Nuclear Dipole moment (a.u.) 
            ----------------------------
        X                 Y               Z
 ---------------- ---------------- ----------------
    -0.0000000000     0.0000000000    -0.0000000000

      Symmetry information
      --------------------

 Group name              Td       
 Group number             42
 Group order              24
 No. of unique centers     3

      Symmetry unique atoms

     1    2    3


                                 NWChem DFT Module
                                 -----------------


                              TMS NMR PBE0/def2-tzvpd




 Summary of "ao basis" -> "ao basis" (spherical)
 ------------------------------------------------------------------------------
       Tag                 Description            Shells   Functions and Types
 ---------------- ------------------------------  ------  ---------------------
 Si                          6-311G                 11       21   6s5p
 C                           6-311G                  7       13   4s3p
 H                           6-311G                  3        3   3s


      Symmetry analysis of basis
      --------------------------

        a1         16
        a2          0
        e          12
        t1         18
        t2         63

  Caching 1-el integrals 

            General Information
            -------------------
          SCF calculation type: DFT
          Wavefunction type:  closed shell.
          No. of atoms     :    17
          No. of electrons :    50
           Alpha electrons :    25
            Beta electrons :    25
          Charge           :     0
          Spin multiplicity:     1
          Use of symmetry is: on ; symmetry adaption is: on 
          Maximum number of iterations:  30
          This is a Direct SCF calculation.
          AO basis - number of functions:   109
                     number of shells:    75
          Convergence on energy requested:  1.00D-06
          Convergence on density requested:  1.00D-05
          Convergence on gradient requested:  5.00D-04

              XC Information
              --------------
                         PBE0 Method XC Functional
                     Hartree-Fock (Exact) Exchange  0.250          
          PerdewBurkeErnzerhof Exchange Functional  0.750          
            Perdew 1991 LDA Correlation Functional  1.000 local    
           PerdewBurkeErnz. Correlation Functional  1.000 non-local

             Grid Information
             ----------------
          Grid used for XC integration:  medium    
          Radial quadrature: Mura-Knowles        
          Angular quadrature: Lebedev. 
          Tag              B.-S. Rad. Rad. Pts. Rad. Cut. Ang. Pts.
          ---              ---------- --------- --------- ---------
          Si                  1.10       88           9.0       590
          C                   0.70       49          11.0       434
          H                   0.35       45          12.0       434
          Grid pruning is: on 
          Number of quadrature shells:   182
          Spatial weights used:  Erf1

          Convergence Information
          -----------------------
          Convergence aids based upon iterative change in 
          total energy or number of iterations. 
          Levelshifting, if invoked, occurs when the 
          HOMO/LUMO gap drops below (HL_TOL):  1.00D-02
          DIIS, if invoked, will attempt to extrapolate 
          using up to (NFOCK): 10 stored Fock matrices.

                    Damping( 0%)  Levelshifting(0.5)       DIIS
                  --------------- ------------------- ---------------
          dE  on:    start            ASAP                start   
          dE off:    2 iters         30 iters            30 iters 


      Screening Tolerance Information
      -------------------------------
          Density screening/tol_rho:  1.00D-10
          AO Gaussian exp screening on grid/accAOfunc:  14
          CD Gaussian exp screening on grid/accCDfunc:  20
          XC Gaussian exp screening on grid/accXCfunc:  20
          Schwarz screening/accCoul:  1.00D-08


 Loading old vectors from job with title :

TMS NMR PBE0/def2-tzvpd


      Symmetry analysis of molecular orbitals - initial
      -------------------------------------------------

  Numbering of irreducible representations: 

     1 a1          2 a2          3 e           4 t1          5 t2      

  Orbital symmetries:

     1 a1          2 t2          3 t2          4 t2          5 a1      
     6 a1          7 t2          8 t2          9 t2         10 a1      
    11 t2         12 t2         13 t2         14 a1         15 t2      
    16 t2         17 t2         18 e          19 e          20 t1      
    21 t1         22 t1         23 t2         24 t2         25 t2      
    26 a1         27 t2         28 t2         29 t2         30 t2      
    31 t2         32 t2         33 e          34 e          35 t1      

   Time after variat. SCF:     13.0
   Time prior to 1st pass:     13.0

 Grid_pts file          = ./TMS.gridpts.0
 Record size in doubles =  12289        No. of grid_pts per rec  =   3070
 Max. records in memory =     40        Max. recs in file   =   4199459

 Grid integrated density:      50.000194315504
 Requested integration accuracy:   0.10E-05

           Memory utilization after 1st SCF pass: 
           Heap Space remaining (MW):       12.56            12556354
          Stack Space remaining (MW):       13.11            13106084

   convergence    iter        energy       DeltaE   RMS-Dens  Diis-err    time
 ---------------- ----- ----------------- --------- --------- ---------  ------
 d= 0,ls=0.0,diis     1   -448.8333648505 -6.93D+02  2.33D-04  2.51D-04    14.0
 Grid integrated density:      50.000195166669
 Requested integration accuracy:   0.10E-05
 d= 0,ls=0.0,diis     2   -448.8334143858 -4.95D-05  3.43D-05  1.42D-05    14.8
 Grid integrated density:      50.000195209841
 Requested integration accuracy:   0.10E-05
 d= 0,ls=0.0,diis     3   -448.8334149417 -5.56D-07  1.65D-05  6.52D-06    15.7
 Grid integrated density:      50.000195282459
 Requested integration accuracy:   0.10E-05
 d= 0,ls=0.0,diis     4   -448.8334156634 -7.22D-07  3.03D-06  3.54D-07    16.5


         Total DFT energy =     -448.833415663420
      One electron energy =    -1099.090479569945
           Coulomb energy =      452.929862739949
    Exchange-Corr. energy =      -46.816259634437
 Nuclear repulsion energy =      244.143460801013

 Numeric. integr. density =       50.000195282459

     Total iterative time =      3.4s



                  Occupations of the irreducible representations
                  ----------------------------------------------

                     irrep           alpha         beta
                     --------     --------     --------
                     a1                5.0          5.0
                     a2                0.0          0.0
                     e                 2.0          2.0
                     t1                3.0          3.0
                     t2               15.0         15.0


 center of mass
 --------------
 x =   0.00000000 y =  -0.00000000 z =   0.00000000

 moments of inertia (a.u.)
 ------------------
         593.562088844927           0.000000000000          -0.000000000000
           0.000000000000         593.562088844927           0.000000000000
          -0.000000000000           0.000000000000         593.562088844927

            General Information
            -------------------
          SCF calculation type: DFT
          Wavefunction type:  closed shell.
          No. of atoms     :    17
          No. of electrons :    50
           Alpha electrons :    25
            Beta electrons :    25
          Charge           :     0
          Spin multiplicity:     1
          Use of symmetry is: on ; symmetry adaption is: on 
          Maximum number of iterations:  30
          This is a Direct SCF calculation.
          AO basis - number of functions:   109
                     number of shells:    75
          Convergence on energy requested:  1.00D-06
          Convergence on density requested:  1.00D-05
          Convergence on gradient requested:  5.00D-04

              XC Information
              --------------
                         PBE0 Method XC Functional
                     Hartree-Fock (Exact) Exchange  0.250          
          PerdewBurkeErnzerhof Exchange Functional  0.750          
            Perdew 1991 LDA Correlation Functional  1.000 local    
           PerdewBurkeErnz. Correlation Functional  1.000 non-local

             Grid Information
             ----------------
          Grid used for XC integration:  medium    
          Radial quadrature: Mura-Knowles        
          Angular quadrature: Lebedev. 
          Tag              B.-S. Rad. Rad. Pts. Rad. Cut. Ang. Pts.
          ---              ---------- --------- --------- ---------
          Si                  1.10       88           9.0       590
          C                   0.70       49          11.0       434
          H                   0.35       45          12.0       434
          Grid pruning is: on 
          Number of quadrature shells:   182
          Spatial weights used:  Erf1

          Convergence Information
          -----------------------
          Convergence aids based upon iterative change in 
          total energy or number of iterations. 
          Levelshifting, if invoked, occurs when the 
          HOMO/LUMO gap drops below (HL_TOL):  1.00D-02
          DIIS, if invoked, will attempt to extrapolate 
          using up to (NFOCK): 10 stored Fock matrices.

                    Damping( 0%)  Levelshifting(0.5)       DIIS
                  --------------- ------------------- ---------------
          dE  on:    start            ASAP                start   
          dE off:    2 iters         30 iters            30 iters 


      Screening Tolerance Information
      -------------------------------
          Density screening/tol_rho:  1.00D-10
          AO Gaussian exp screening on grid/accAOfunc:  14
          CD Gaussian exp screening on grid/accCDfunc:  20
          XC Gaussian exp screening on grid/accXCfunc:  20
          Schwarz screening/accCoul:  1.00D-08



                            NWChem DFT Gradient Module
                            --------------------------


                              TMS NMR PBE0/def2-tzvpd



  charge          =   0.00
  wavefunction    = closed shell

  Using symmetry


                         DFT ENERGY GRADIENTS

    atom               coordinates                        gradient
                 x          y          z           x          y          z
   1 Si      0.000000   0.000000   0.000000    0.000000   0.000000   0.000000
   2 C       2.072297   2.072297   2.072297   -0.000802  -0.000802  -0.000802
   3 H       3.287587   3.287587   0.932658   -0.000174  -0.000174   0.000854
   4 H       3.287587   0.932658   3.287587   -0.000174   0.000854  -0.000174
   5 H       0.932658   3.287587   3.287587    0.000854  -0.000174  -0.000174
   6 C      -2.072297  -2.072297   2.072297    0.000802   0.000802  -0.000802
   7 H      -3.287587  -0.932658   3.287587    0.000174  -0.000854  -0.000174
   8 H      -3.287587  -3.287587   0.932658    0.000174   0.000174   0.000854
   9 H      -0.932658  -3.287587   3.287587   -0.000854   0.000174  -0.000174
  10 C       2.072297  -2.072297  -2.072297   -0.000802   0.000802   0.000802
  11 H       0.932658  -3.287587  -3.287587    0.000854   0.000174   0.000174
  12 H       3.287587  -0.932658  -3.287587   -0.000174  -0.000854   0.000174
  13 H       3.287587  -3.287587  -0.932658   -0.000174   0.000174  -0.000854
  14 C      -2.072297   2.072297  -2.072297    0.000802  -0.000802   0.000802
  15 H      -3.287587   0.932658  -3.287587    0.000174   0.000854   0.000174
  16 H      -3.287587   3.287587  -0.932658    0.000174  -0.000174  -0.000854
  17 H      -0.932658   3.287587  -3.287587   -0.000854  -0.000174   0.000174

                 ----------------------------------------
                 |  Time  |  1-e(secs)   |  2-e(secs)   |
                 ----------------------------------------
                 |  CPU   |       0.01   |       3.30   |
                 ----------------------------------------
                 |  WALL  |       0.01   |       3.23   |
                 ----------------------------------------
  no constraints, skipping    0.0000000000000000     

  Step       Energy      Delta E   Gmax     Grms     Xrms     Xmax   Walltime
  ---- ---------------- -------- -------- -------- -------- -------- --------
@    1    -448.83341566 -7.4D-04  0.00068  0.00033  0.02291  0.02696     20.2
                                                                    



                                Z-matrix (autoz)
                                -------- 

 Units are Angstrom for bonds and degrees for angles

      Type          Name      I     J     K     L     M      Value     Gradient
      ----------- --------  ----- ----- ----- ----- ----- ---------- ----------
    1 Stretch                  1     2                       1.89939   -0.00051
    2 Stretch                  1     6                       1.89939   -0.00051
    3 Stretch                  1    10                       1.89939   -0.00051
    4 Stretch                  1    14                       1.89939   -0.00051
    5 Stretch                  2     3                       1.09126   -0.00068
    6 Stretch                  2     4                       1.09126   -0.00068
    7 Stretch                  2     5                       1.09126   -0.00068
    8 Stretch                  6     7                       1.09126   -0.00068
    9 Stretch                  6     8                       1.09126   -0.00068
   10 Stretch                  6     9                       1.09126   -0.00068
   11 Stretch                 10    11                       1.09126   -0.00068
   12 Stretch                 10    12                       1.09126   -0.00068
   13 Stretch                 10    13                       1.09126   -0.00068
   14 Stretch                 14    15                       1.09126   -0.00068
   15 Stretch                 14    16                       1.09126   -0.00068
   16 Stretch                 14    17                       1.09126   -0.00068
   17 Bend                     1     2     3               111.18763    0.00030
   18 Bend                     1     2     4               111.18763    0.00030
   19 Bend                     1     2     5               111.18763    0.00030
   20 Bend                     1     6     7               111.18763    0.00030
   21 Bend                     1     6     8               111.18763    0.00030
   22 Bend                     1     6     9               111.18763    0.00030
   23 Bend                     1    10    11               111.18763    0.00030
   24 Bend                     1    10    12               111.18763    0.00030
   25 Bend                     1    10    13               111.18763    0.00030
   26 Bend                     1    14    15               111.18763    0.00030
   27 Bend                     1    14    16               111.18763    0.00030
   28 Bend                     1    14    17               111.18763    0.00030
   29 Bend                     2     1     6               109.47122    0.00000
   30 Bend                     2     1    10               109.47122    0.00000
   31 Bend                     2     1    14               109.47122   -0.00000
   32 Bend                     3     2     4               107.70161   -0.00031
   33 Bend                     3     2     5               107.70161   -0.00031
   34 Bend                     4     2     5               107.70161   -0.00031
   35 Bend                     6     1    10               109.47122   -0.00000
   36 Bend                     6     1    14               109.47122   -0.00000
   37 Bend                     7     6     8               107.70161   -0.00031
   38 Bend                     7     6     9               107.70161   -0.00031
   39 Bend                     8     6     9               107.70161   -0.00031
   40 Bend                    10     1    14               109.47122   -0.00000
   41 Bend                    11    10    12               107.70161   -0.00031
   42 Bend                    11    10    13               107.70161   -0.00031
   43 Bend                    12    10    13               107.70161   -0.00031
   44 Bend                    15    14    16               107.70161   -0.00031
   45 Bend                    15    14    17               107.70161   -0.00031
   46 Bend                    16    14    17               107.70161   -0.00031
   47 Torsion                  2     1     6     7          60.00000   -0.00000
   48 Torsion                  2     1     6     8         180.00000   -0.00000
   49 Torsion                  2     1     6     9         -60.00000   -0.00000
   50 Torsion                  2     1    10    11         180.00000    0.00000
   51 Torsion                  2     1    10    12         -60.00000    0.00000
   52 Torsion                  2     1    10    13          60.00000    0.00000
   53 Torsion                  2     1    14    15         180.00000   -0.00000
   54 Torsion                  2     1    14    16         -60.00000    0.00000
   55 Torsion                  2     1    14    17          60.00000    0.00000
   56 Torsion                  3     2     1     6         180.00000    0.00000
   57 Torsion                  3     2     1    10          60.00000   -0.00000
   58 Torsion                  3     2     1    14         -60.00000    0.00000
   59 Torsion                  4     2     1     6          60.00000    0.00000
   60 Torsion                  4     2     1    10         -60.00000   -0.00000
   61 Torsion                  4     2     1    14         180.00000    0.00000
   62 Torsion                  5     2     1     6         -60.00000    0.00000
   63 Torsion                  5     2     1    10         180.00000   -0.00000
   64 Torsion                  5     2     1    14          60.00000    0.00000
   65 Torsion                  6     1    10    11          60.00000    0.00000
   66 Torsion                  6     1    10    12         180.00000   -0.00000
   67 Torsion                  6     1    10    13         -60.00000   -0.00000
   68 Torsion                  6     1    14    15         -60.00000    0.00000
   69 Torsion                  6     1    14    16          60.00000    0.00000
   70 Torsion                  6     1    14    17         180.00000    0.00000
   71 Torsion                  7     6     1    10         180.00000    0.00000
   72 Torsion                  7     6     1    14         -60.00000    0.00000
   73 Torsion                  8     6     1    10         -60.00000    0.00000
   74 Torsion                  8     6     1    14          60.00000   -0.00000
   75 Torsion                  9     6     1    10          60.00000    0.00000
   76 Torsion                  9     6     1    14         180.00000   -0.00000
   77 Torsion                 10     1    14    15          60.00000   -0.00000
   78 Torsion                 10     1    14    16         180.00000    0.00000
   79 Torsion                 10     1    14    17         -60.00000    0.00000
   80 Torsion                 11    10     1    14         -60.00000    0.00000
   81 Torsion                 12    10     1    14          60.00000   -0.00000
   82 Torsion                 13    10     1    14         180.00000   -0.00000

  no constraints, skipping    0.0000000000000000     
  no constraints, skipping    0.0000000000000000     
  no constraints, skipping    0.0000000000000000     
  no constraints, skipping    0.0000000000000000     
  no constraints, skipping    0.0000000000000000     
  no constraints, skipping    0.0000000000000000     
  no constraints, skipping    0.0000000000000000     
  no constraints, skipping    0.0000000000000000     

                                 NWChem DFT Module
                                 -----------------


                              TMS NMR PBE0/def2-tzvpd




 Summary of "ao basis" -> "ao basis" (spherical)
 ------------------------------------------------------------------------------
       Tag                 Description            Shells   Functions and Types
 ---------------- ------------------------------  ------  ---------------------
 Si                          6-311G                 11       21   6s5p
 C                           6-311G                  7       13   4s3p
 H                           6-311G                  3        3   3s


      Symmetry analysis of basis
      --------------------------

        a1         16
        a2          0
        e          12
        t1         18
        t2         63

  Caching 1-el integrals 

            General Information
            -------------------
          SCF calculation type: DFT
          Wavefunction type:  closed shell.
          No. of atoms     :    17
          No. of electrons :    50
           Alpha electrons :    25
            Beta electrons :    25
          Charge           :     0
          Spin multiplicity:     1
          Use of symmetry is: on ; symmetry adaption is: on 
          Maximum number of iterations:  30
          This is a Direct SCF calculation.
          AO basis - number of functions:   109
                     number of shells:    75
          Convergence on energy requested:  1.00D-06
          Convergence on density requested:  1.00D-05
          Convergence on gradient requested:  5.00D-04

              XC Information
              --------------
                         PBE0 Method XC Functional
                     Hartree-Fock (Exact) Exchange  0.250          
          PerdewBurkeErnzerhof Exchange Functional  0.750          
            Perdew 1991 LDA Correlation Functional  1.000 local    
           PerdewBurkeErnz. Correlation Functional  1.000 non-local

             Grid Information
             ----------------
          Grid used for XC integration:  medium    
          Radial quadrature: Mura-Knowles        
          Angular quadrature: Lebedev. 
          Tag              B.-S. Rad. Rad. Pts. Rad. Cut. Ang. Pts.
          ---              ---------- --------- --------- ---------
          Si                  1.10       88           9.0       590
          C                   0.70       49          11.0       434
          H                   0.35       45          12.0       434
          Grid pruning is: on 
          Number of quadrature shells:   182
          Spatial weights used:  Erf1

          Convergence Information
          -----------------------
          Convergence aids based upon iterative change in 
          total energy or number of iterations. 
          Levelshifting, if invoked, occurs when the 
          HOMO/LUMO gap drops below (HL_TOL):  1.00D-02
          DIIS, if invoked, will attempt to extrapolate 
          using up to (NFOCK): 10 stored Fock matrices.

                    Damping( 0%)  Levelshifting(0.5)       DIIS
                  --------------- ------------------- ---------------
          dE  on:    start            ASAP                start   
          dE off:    2 iters         30 iters            30 iters 


      Screening Tolerance Information
      -------------------------------
          Density screening/tol_rho:  1.00D-10
          AO Gaussian exp screening on grid/accAOfunc:  14
          CD Gaussian exp screening on grid/accCDfunc:  20
          XC Gaussian exp screening on grid/accXCfunc:  20
          Schwarz screening/accCoul:  1.00D-08


 Loading old vectors from job with title :

TMS NMR PBE0/def2-tzvpd


      Symmetry analysis of molecular orbitals - initial
      -------------------------------------------------

  Numbering of irreducible representations: 

     1 a1          2 a2          3 e           4 t1          5 t2      

  Orbital symmetries:

[...]
    15  H       0.91986       -0.13204          0.91986           0.78782                -0.00000
    16  H       0.91986       -0.13204          0.91986           0.78782                -0.00000
    17  H       0.91986       -0.13204          0.91986           0.78782                 0.00000

          -----------------------------------------
          Chemical Shielding Tensors (GIAO, in ppm)
          -----------------------------------------

    0 giaofock schwarz done =      81.89%
    0 giaofock schwarz done =      81.89%
 Grid integrated density:      50.000107928407
 Requested integration accuracy:   0.10E-06
                                NWChem CPHF Module
                                ------------------


  scftype          =     RHF 
  nclosed          =       25
  nopen            =        0
  variables        =     2100
  # of vectors     =        3
  tolerance        = 0.10D-03
  level shift      = 0.00D+00
  max iterations   =       50
  max subspace     =       30

 Grid integrated density:      50.000107928407
 Requested integration accuracy:   0.10E-06
 SCF residual:    2.0946400727823546E-005


Iterative solution of linear equations
  No. of variables     2100
  No. of equations        3
  Maximum subspace       30
        Iterations       50
       Convergence  1.0D-04
        Start time    204.6


   iter   nsub   residual    time
   ----  ------  --------  ---------
     1      3    3.54D-01     236.7
     2      6    1.32D-02     269.5
     3      9    3.67D-04     302.5
     4     12    1.22D-05     335.5

 Wrote CPHF data to ./TMS.shieldcphf

 Calc. par tensor-> nonrel
      Atom:    1  Si
        Diamagnetic
    881.4088     -0.0000     -0.0000
     -0.0000    881.4088      0.0000
     -0.0000      0.0000    881.4088

        Paramagnetic
   -497.8619     -0.0000     -0.0000
     -0.0000   -497.8619     -0.0000
     -0.0000     -0.0000   -497.8619

        Total Shielding Tensor
    383.5469     -0.0000     -0.0000
     -0.0000    383.5469     -0.0000
     -0.0000     -0.0000    383.5469

           isotropic =     383.5469
          anisotropy =       0.0000

          Principal Components and Axis System
                 1           2           3
              383.5469    383.5469    383.5469

      1        -0.6186     -0.4372      0.6528
      2        -0.1561      0.8827      0.4433
      3         0.7700     -0.1724      0.6143



      Atom:    2  C 
        Diamagnetic
    255.9148      3.3629      3.3629
      3.3629    255.9148      3.3629
      3.3629      3.3629    255.9148

        Paramagnetic
    -60.4653     -0.8173     -0.8173
     -0.8173    -60.4653     -0.8173
     -0.8173     -0.8173    -60.4653

        Total Shielding Tensor
    195.4494      2.5455      2.5455
      2.5455    195.4494      2.5455
      2.5455      2.5455    195.4494

           isotropic =     195.4494
          anisotropy =       7.6366

          Principal Components and Axis System
                 1           2           3
              200.5405    192.9039    192.9039

      1         0.5774      0.0260      0.8161
      2         0.5774     -0.7197     -0.3856
      3         0.5774      0.6938     -0.4305



      Atom:    3  H 
        Diamagnetic
     31.6732      7.0938     -3.1063
      7.0938     31.6732     -3.1063
     -3.1063     -3.1063     29.0420

        Paramagnetic
      2.0571     -1.9034      1.3753
     -1.9034      2.0571      1.3753
      1.3753      1.3753      1.8120

        Total Shielding Tensor
     33.7303      5.1904     -1.7310
      5.1904     33.7303     -1.7310
     -1.7310     -1.7310     30.8540

           isotropic =      32.7715
          anisotropy =      10.2508

          Principal Components and Axis System
                 1           2           3
               39.6054     30.1693     28.5399

      1         0.6810      0.1905      0.7071
      2         0.6810      0.1905     -0.7071
      3        -0.2694      0.9630      0.0000



      Atom:    4  H 
        Diamagnetic
     31.6732     -3.1063      7.0938
     -3.1063     29.0420     -3.1063
      7.0938     -3.1063     31.6732

        Paramagnetic
      2.0571      1.3753     -1.9034
      1.3753      1.8120      1.3753
     -1.9034      1.3753      2.0571

        Total Shielding Tensor
     33.7303     -1.7310      5.1904
     -1.7310     30.8540     -1.7310
      5.1904     -1.7310     33.7303

           isotropic =      32.7715
          anisotropy =      10.2508

          Principal Components and Axis System
                 1           2           3
               39.6054     30.1693     28.5399

      1         0.6810      0.1905     -0.7071
      2        -0.2694      0.9630      0.0000
      3         0.6810      0.1905      0.7071



      Atom:    5  H 
        Diamagnetic
     29.0420     -3.1063     -3.1063
     -3.1063     31.6732      7.0938
     -3.1063      7.0938     31.6732

        Paramagnetic
      1.8120      1.3753      1.3753
      1.3753      2.0571     -1.9034
      1.3753     -1.9034      2.0571

        Total Shielding Tensor
     30.8540     -1.7310     -1.7310
     -1.7310     33.7303      5.1904
     -1.7310      5.1904     33.7303

           isotropic =      32.7715
          anisotropy =      10.2508

          Principal Components and Axis System
                 1           2           3
               39.6054     30.1693     28.5399

      1        -0.2694      0.9630      0.0000
      2         0.6810      0.1905     -0.7071
      3         0.6810      0.1905      0.7071



      Atom:    6  C 
        Diamagnetic
    255.9148      3.3629     -3.3629
      3.3629    255.9148     -3.3629
     -3.3629     -3.3629    255.9148

        Paramagnetic
    -60.4653     -0.8173      0.8173
     -0.8173    -60.4653      0.8173
      0.8173      0.8173    -60.4653

        Total Shielding Tensor
    195.4494      2.5455     -2.5455
      2.5455    195.4494     -2.5455
     -2.5455     -2.5455    195.4494

           isotropic =     195.4494
          anisotropy =       7.6366

          Principal Components and Axis System
                 1           2           3
              200.5405    192.9039    192.9039

      1         0.5774      0.7897      0.2074
      2         0.5774     -0.5745      0.5802
      3        -0.5774      0.2152      0.7876



      Atom:    7  H 
        Diamagnetic
     31.6732     -3.1063     -7.0938
     -3.1063     29.0420      3.1063
     -7.0938      3.1063     31.6732

        Paramagnetic
      2.0571      1.3753      1.9034
      1.3753      1.8120     -1.3753
      1.9034     -1.3753      2.0571

        Total Shielding Tensor
     33.7303     -1.7310     -5.1904
     -1.7310     30.8540      1.7310
     -5.1904      1.7310     33.7303

           isotropic =      32.7715
          anisotropy =      10.2508

          Principal Components and Axis System
                 1           2           3
               39.6054     30.1693     28.5399

      1         0.6810      0.1905      0.7071
      2        -0.2694      0.9630     -0.0000
      3        -0.6810     -0.1905      0.7071



      Atom:    8  H 
        Diamagnetic
     31.6732      7.0938      3.1063
      7.0938     31.6732      3.1063
      3.1063      3.1063     29.0420

        Paramagnetic
      2.0571     -1.9034     -1.3753
     -1.9034      2.0571     -1.3753
     -1.3753     -1.3753      1.8120

        Total Shielding Tensor
     33.7303      5.1904      1.7310
      5.1904     33.7303      1.7310
      1.7310      1.7310     30.8540

           isotropic =      32.7715
          anisotropy =      10.2508

          Principal Components and Axis System
                 1           2           3
               39.6054     30.1693     28.5399

      1         0.6810     -0.1905     -0.7071
      2         0.6810     -0.1905      0.7071
      3         0.2694      0.9630      0.0000



      Atom:    9  H 
        Diamagnetic
     29.0420     -3.1063      3.1063
     -3.1063     31.6732     -7.0938
      3.1063     -7.0938     31.6732

        Paramagnetic
      1.8120      1.3753     -1.3753
      1.3753      2.0571      1.9034
     -1.3753      1.9034      2.0571

        Total Shielding Tensor
     30.8540     -1.7310      1.7310
     -1.7310     33.7303     -5.1904
      1.7310     -5.1904     33.7303

           isotropic =      32.7715
          anisotropy =      10.2508

          Principal Components and Axis System
                 1           2           3
               39.6054     30.1693     28.5399

      1        -0.2694      0.9630     -0.0000
      2         0.6810      0.1905      0.7071
      3        -0.6810     -0.1905      0.7071



      Atom:   10  C 
        Diamagnetic
    255.9148     -3.3629     -3.3629
     -3.3629    255.9148      3.3629
     -3.3629      3.3629    255.9148

        Paramagnetic
    -60.4653      0.8173      0.8173
      0.8173    -60.4653     -0.8173
      0.8173     -0.8173    -60.4653

        Total Shielding Tensor
    195.4494     -2.5455     -2.5455
     -2.5455    195.4494      2.5455
     -2.5455      2.5455    195.4494

           isotropic =     195.4494
          anisotropy =       7.6366

          Principal Components and Axis System
                 1           2           3
              200.5405    192.9039    192.9039

      1         0.5774      0.4575      0.6763
      2        -0.5774     -0.3569      0.7344
      3        -0.5774      0.8144     -0.0581



      Atom:   11  H 
        Diamagnetic
     29.0420      3.1063      3.1063
      3.1063     31.6732      7.0938
      3.1063      7.0938     31.6732

        Paramagnetic
      1.8120     -1.3753     -1.3753
     -1.3753      2.0571     -1.9034
     -1.3753     -1.9034      2.0571

        Total Shielding Tensor
     30.8540      1.7310      1.7310
      1.7310     33.7303      5.1904
      1.7310      5.1904     33.7303

           isotropic =      32.7715
          anisotropy =      10.2508

          Principal Components and Axis System
                 1           2           3
               39.6054     30.1693     28.5399

      1         0.2694      0.9630     -0.0000
      2         0.6810     -0.1905      0.7071
      3         0.6810     -0.1905     -0.7071



      Atom:   12  H 
        Diamagnetic
     31.6732      3.1063     -7.0938
      3.1063     29.0420     -3.1063
     -7.0938     -3.1063     31.6732

        Paramagnetic
      2.0571     -1.3753      1.9034
     -1.3753      1.8120      1.3753
      1.9034      1.3753      2.0571

        Total Shielding Tensor
     33.7303      1.7310     -5.1904
      1.7310     30.8540     -1.7310
     -5.1904     -1.7310     33.7303

           isotropic =      32.7715
          anisotropy =      10.2508

          Principal Components and Axis System
                 1           2           3
               39.6054     30.1693     28.5399

      1        -0.6810     -0.1905      0.7071
      2        -0.2694      0.9630     -0.0000
      3         0.6810      0.1905      0.7071



      Atom:   13  H 
        Diamagnetic
     31.6732     -7.0938      3.1063
     -7.0938     31.6732     -3.1063
      3.1063     -3.1063     29.0420

        Paramagnetic
      2.0571      1.9034     -1.3753
      1.9034      2.0571      1.3753
     -1.3753      1.3753      1.8120

        Total Shielding Tensor
     33.7303     -5.1904      1.7310
     -5.1904     33.7303     -1.7310
      1.7310     -1.7310     30.8540

           isotropic =      32.7715
          anisotropy =      10.2508

          Principal Components and Axis System
                 1           2           3
               39.6054     30.1693     28.5399

      1         0.6810     -0.1905      0.7071
      2        -0.6810      0.1905      0.7071
      3         0.2694      0.9630      0.0000



      Atom:   14  C 
        Diamagnetic
    255.9148     -3.3629      3.3629
     -3.3629    255.9148     -3.3629
      3.3629     -3.3629    255.9148

        Paramagnetic
    -60.4653      0.8173     -0.8173
      0.8173    -60.4653      0.8173
     -0.8173      0.8173    -60.4653

        Total Shielding Tensor
    195.4494     -2.5455      2.5455
     -2.5455    195.4494     -2.5455
      2.5455     -2.5455    195.4494

           isotropic =     195.4494
          anisotropy =       7.6366

          Principal Components and Axis System
                 1           2           3
              200.5405    192.9039    192.9039

      1        -0.5774      0.8161      0.0252
      2         0.5774      0.3863      0.7194
      3        -0.5774     -0.4299      0.6942



      Atom:   15  H 
        Diamagnetic
     31.6732      3.1063      7.0938
      3.1063     29.0420      3.1063
      7.0938      3.1063     31.6732

        Paramagnetic
      2.0571     -1.3753     -1.9034
     -1.3753      1.8120     -1.3753
     -1.9034     -1.3753      2.0571

        Total Shielding Tensor
     33.7303      1.7310      5.1904
      1.7310     30.8540      1.7310
      5.1904      1.7310     33.7303

           isotropic =      32.7715
          anisotropy =      10.2508

          Principal Components and Axis System
                 1           2           3
               39.6054     30.1693     28.5399

      1         0.6810     -0.1905     -0.7071
      2         0.2694      0.9630      0.0000
      3         0.6810     -0.1905      0.7071



      Atom:   16  H 
        Diamagnetic
     31.6732     -7.0938     -3.1063
     -7.0938     31.6732      3.1063
     -3.1063      3.1063     29.0420

        Paramagnetic
      2.0571      1.9034      1.3753
      1.9034      2.0571     -1.3753
      1.3753     -1.3753      1.8120

        Total Shielding Tensor
     33.7303     -5.1904     -1.7310
     -5.1904     33.7303      1.7310
     -1.7310      1.7310     30.8540

           isotropic =      32.7715
          anisotropy =      10.2508

          Principal Components and Axis System
                 1           2           3
               39.6054     30.1693     28.5399

      1        -0.6810      0.1905      0.7071
      2         0.6810     -0.1905      0.7071
      3         0.2694      0.9630      0.0000



      Atom:   17  H 
        Diamagnetic
     29.0420      3.1063     -3.1063
      3.1063     31.6732     -7.0938
     -3.1063     -7.0938     31.6732

        Paramagnetic
      1.8120     -1.3753      1.3753
     -1.3753      2.0571      1.9034
      1.3753      1.9034      2.0571

        Total Shielding Tensor
     30.8540      1.7310     -1.7310
      1.7310     33.7303     -5.1904
     -1.7310     -5.1904     33.7303

           isotropic =      32.7715
          anisotropy =      10.2508

          Principal Components and Axis System
                 1           2           3
               39.6054     30.1693     28.5399

      1         0.2694      0.9630      0.0000
      2         0.6810     -0.1905      0.7071
      3        -0.6810      0.1905      0.7071




 Task  times  cpu:      547.3s     wall:      302.3s
 Summary of allocated global arrays
-----------------------------------
  No active global arrays



                         GA Statistics for process    0
                         ------------------------------

       create   destroy   get      put      acc     scatter   gather  read&inc
calls: 2109     2078     4.37e+07 2.97e+04 1.45e+07  985        0     3.09e+04 
number of processes/call 0.00e+00 0.00e+00 0.00e+00 0.00e+00 0.00e+00
bytes total:             1.99e+09 1.21e+08 1.78e+09 9.50e+04 0.00e+00 2.47e+05
bytes remote:            0.00e+00 0.00e+00 0.00e+00 0.00e+00 0.00e+00 0.00e+00
Max memory consumed for GA by this process: 15397776 bytes
MA_summarize_allocated_blocks: starting scan ...
MA_summarize_allocated_blocks: scan completed: 0 heap blocks, 0 stack blocks
MA usage statistics:

	allocation statistics:
					      heap	     stack
					      ----	     -----
	current number of blocks	         0	         0
	maximum number of blocks	        26	        57
	current total bytes		         0	         0
	maximum total bytes		  31046032	  22518040
	maximum total K-bytes		     31047	     22519
	maximum total M-bytes		        32	        23


                                NWChem Input Module
                                -------------------





                                     CITATION
                                     --------
                Please cite the following reference when publishing
                           results obtained with NWChem:

          E. Apr, E. J. Bylaska, W. A. de Jong, N. Govind, K. Kowalski,
       T. P. Straatsma, M. Valiev, H. J. J. van Dam, Y. Alexeev, J. Anchell,
       V. Anisimov, F. W. Aquino, R. Atta-Fynn, J. Autschbach, N. P. Bauman,
     J. C. Becca, D. E. Bernholdt, K. Bhaskaran-Nair, S. Bogatko, P. Borowski,
        J. Boschen, J. Brabec, A. Bruner, E. Caut, Y. Chen, G. N. Chuev,
      C. J. Cramer, J. Daily, M. J. O. Deegan, T. H. Dunning Jr., M. Dupuis,
   K. G. Dyall, G. I. Fann, S. A. Fischer, A. Fonari, H. Frchtl, L. Gagliardi,
      J. Garza, N. Gawande, S. Ghosh, K. Glaesemann, A. W. Gtz, J. Hammond,
       V. Helms, E. D. Hermes, K. Hirao, S. Hirata, M. Jacquelin, L. Jensen,
   B. G. Johnson, H. Jnsson, R. A. Kendall, M. Klemm, R. Kobayashi, V. Konkov,
      S. Krishnamoorthy, M. Krishnan, Z. Lin, R. D. Lins, R. J. Littlefield,
      A. J. Logsdail, K. Lopata, W. Ma, A. V. Marenich, J. Martin del Campo,
   D. Mejia-Rodriguez, J. E. Moore, J. M. Mullin, T. Nakajima, D. R. Nascimento,
    J. A. Nichols, P. J. Nichols, J. Nieplocha, A. Otero-de-la-Roza, B. Palmer,
    A. Panyala, T. Pirojsirikul, B. Peng, R. Peverati, J. Pittner, L. Pollack,
   R. M. Richard, P. Sadayappan, G. C. Schatz, W. A. Shelton, D. W. Silverstein,
   D. M. A. Smith, T. A. Soares, D. Song, M. Swart, H. L. Taylor, G. S. Thomas,
            V. Tipparaju, D. G. Truhlar, K. Tsemekhman, T. Van Voorhis,
     . Vzquez-Mayagoitia, P. Verma, O. Villa, A. Vishnu, K. D. Vogiatzis,
        D. Wang, J. H. Weare, M. J. Williamson, T. L. Windus, K. Woliski,
        A. T. Wong, Q. Wu, C. Yang, Q. Yu, M. Zacharias, Z. Zhang, Y. Zhao,
                                and R. J. Harrison
                        "NWChem: Past, present, and future
                         J. Chem. Phys. 152, 184102 (2020)
                               doi:10.1063/5.0004997

                                      AUTHORS
                                      -------
     E. Apra, E. J. Bylaska, N. Govind, K. Kowalski, M. Valiev, W. A. de Jong,
      T. P. Straatsma, H. J. J. van Dam, D. Wang, T. L. Windus, N. P. Bauman,
       A. Panyala, J. Hammond, J. Autschbach, K. Bhaskaran-Nair, J. Brabec,
    K. Lopata, S. A. Fischer, S. Krishnamoorthy, M. Jacquelin, W. Ma, M. Klemm,
       O. Villa, Y. Chen, V. Anisimov, F. Aquino, S. Hirata, M. T. Hackler,
           Eric Hermes, L. Jensen, J. E. Moore, J. C. Becca, V. Konjkov,
            D. Mejia-Rodriguez, T. Risthaus, M. Malagoli, A. Marenich,
   A. Otero-de-la-Roza, J. Mullin, P. Nichols, R. Peverati, J. Pittner, Y. Zhao,
        P.-D. Fan, A. Fonari, M. J. Williamson, R. J. Harrison, J. R. Rehr,
      M. Dupuis, D. Silverstein, D. M. A. Smith, J. Nieplocha, V. Tipparaju,
      M. Krishnan, B. E. Van Kuiken, A. Vazquez-Mayagoitia, M. Swart, Q. Wu,
   T. Van Voorhis, A. A. Auer, M. Nooijen, L. D. Crosby, E. Brown, G. Cisneros,
     G. I. Fann, H. Fruchtl, J. Garza, K. Hirao, R. A. Kendall, J. A. Nichols,
       K. Tsemekhman, K. Wolinski, J. Anchell, D. E. Bernholdt, P. Borowski,
       T. Clark, D. Clerc, H. Dachsel, M. J. O. Deegan, K. Dyall, D. Elwood,
      E. Glendening, M. Gutowski, A. C. Hess, J. Jaffe, B. G. Johnson, J. Ju,
        R. Kobayashi, R. Kutteh, Z. Lin, R. Littlefield, X. Long, B. Meng,
      T. Nakajima, S. Niu, L. Pollack, M. Rosing, K. Glaesemann, G. Sandrone,
      M. Stave, H. Taylor, G. Thomas, J. H. van Lenthe, A. T. Wong, Z. Zhang.

 Total times  cpu:      599.7s     wall:      337.9s
